LAMMPS (11 Feb 2026 - Development - patch_10Dec2025-1372-ged4f75871d)
variable number	equal 1
variable ofreq	equal 1000
variable efreq	equal 1000
variable T      equal 0.1
variable rhos   equal 0.2

units lj

dimension 3

newton on

boundary  p p p

atom_style hybrid bond ellipsoid oxdna
WARNING: Atom style hybrid defines both, per-type and per-atom masses; both must be set, but only per-atom masses will be used (../atom_vec_hybrid.cpp:132)
atom_modify sort 0 1.0

# Pair interactions require lists of neighbours to be calculated
neighbor 2.0 bin
neigh_modify every 1 delay 0 check yes

read_data data.duplex1
Reading data file ...
  orthogonal box = (-20 -20 -20) to (20 20 20)
  1 by 1 by 1 MPI processor grid
  reading atoms ...
  10 atoms
  reading velocities ...
  10 velocities
  scanning bonds ...
  1 = max bonds/atom
  10 ellipsoids
  orthogonal box = (-20 -20 -20) to (20 20 20)
  1 by 1 by 1 MPI processor grid
  reading bonds ...
  8 bonds
Finding 1-2 1-3 1-4 neighbors ...
  special bond factors lj:    0        0        0       
  special bond factors coul:  0        0        0       
     2 = max # of 1-2 neighbors
     2 = max # of 1-3 neighbors
     2 = max # of 1-4 neighbors
     4 = max # of special neighbors
  special bonds CPU = 0.000 seconds
  read_data CPU = 0.002 seconds

set atom * mass 3.1575
Setting atom values ...
  10 settings made for mass

group all type 1 4
10 atoms in group all

# oxDNA2 bond interactions - FENE backbone
bond_style oxdna2/fene
bond_coeff * 2.0 0.25 0.7564
special_bonds lj 0 1 1
Finding 1-2 1-3 1-4 neighbors ...
  special bond factors lj:    0        1        1       
  special bond factors coul:  0        0        0       
     2 = max # of 1-2 neighbors
     2 = max # of 1-3 neighbors
     2 = max # of 1-4 neighbors
     4 = max # of special neighbors
  special bonds CPU = 0.000 seconds

# oxDNA2 pair interactions
pair_style hybrid/overlay oxdna2/excv oxdna2/stk oxdna2/hbond oxdna2/xstk oxdna2/coaxstk oxdna2/dh
pair_coeff * * oxdna2/excv    2.0 0.7 0.675 2.0 0.515 0.5 2.0 0.33 0.32
pair_coeff * * oxdna2/stk     seqav ${T} 1.3523 2.6717 6.0 0.4 0.9 0.32 0.75 1.3 0 0.8 0.9 0 0.95 0.9 0 0.95 2.0 0.65 2.0 0.65
pair_coeff * * oxdna2/stk     seqav 0.1 1.3523 2.6717 6.0 0.4 0.9 0.32 0.75 1.3 0 0.8 0.9 0 0.95 0.9 0 0.95 2.0 0.65 2.0 0.65
pair_coeff * * oxdna2/hbond   seqav 0.0 8.0 0.4 0.75 0.34 0.7 1.5 0 0.7 1.5 0 0.7 1.5 0 0.7 0.46 3.141592653589793 0.7 4.0 1.5707963267948966 0.45 4.0 1.5707963267948966 0.45
pair_coeff 1 4 oxdna2/hbond   seqav 1.0678 8.0 0.4 0.75 0.34 0.7 1.5 0 0.7 1.5 0 0.7 1.5 0 0.7 0.46 3.141592653589793 0.7 4.0 1.5707963267948966 0.45 4.0 1.5707963267948966 0.45
pair_coeff 2 3 oxdna2/hbond   seqav 1.0678 8.0 0.4 0.75 0.34 0.7 1.5 0 0.7 1.5 0 0.7 1.5 0 0.7 0.46 3.141592653589793 0.7 4.0 1.5707963267948966 0.45 4.0 1.5707963267948966 0.45
pair_coeff * * oxdna2/xstk    47.5 0.575 0.675 0.495 0.655 2.25 0.791592653589793 0.58 1.7 1.0 0.68 1.7 1.0 0.68 1.5 0 0.65 1.7 0.875 0.68 1.7 0.875 0.68
pair_coeff * * oxdna2/coaxstk 58.5 0.4 0.6 0.22 0.58 2.0 2.891592653589793 0.65 1.3 0 0.8 0.9 0 0.95 0.9 0 0.95 40.0 3.116592653589793
pair_coeff * * oxdna2/dh      ${T} ${rhos} 0.815
pair_coeff * * oxdna2/dh      0.1 ${rhos} 0.815
pair_coeff * * oxdna2/dh      0.1 0.2 0.815

# NVE ensemble
fix 1 all nve/asphere
#fix 2 all langevin ${T} ${T} 2.5 457145 angmom 10

timestep 1e-5

#comm_style tiled
fix 3 all balance 1000 1.03 shift xyz 10 1.03
comm_modify cutoff 3.8

compute quat all property/atom quatw quati quatj quatk

compute erot all erotate/asphere
compute ekin all ke
compute epot all pe
variable erot equal c_erot
variable ekin equal c_ekin
variable epot equal c_epot
variable etot equal c_erot+c_ekin+c_epot
fix 5 all print ${efreq} "$(step)  ekin = ${ekin} |  erot = ${erot} | epot = ${epot} | etot = ${etot}" screen yes
fix 5 all print 1000 "$(step)  ekin = ${ekin} |  erot = ${erot} | epot = ${epot} | etot = ${etot}" screen yes

dump out all custom ${ofreq} out.${number}.lammpstrj id mol type x y z ix iy iz vx vy vz c_quat[1] c_quat[2] c_quat[3] c_quat[4] angmomx angmomy angmomz
dump out all custom 1000 out.${number}.lammpstrj id mol type x y z ix iy iz vx vy vz c_quat[1] c_quat[2] c_quat[3] c_quat[4] angmomx angmomy angmomz
dump out all custom 1000 out.1.lammpstrj id mol type x y z ix iy iz vx vy vz c_quat[1] c_quat[2] c_quat[3] c_quat[4] angmomx angmomy angmomz
dump_modify out sort id
dump_modify out format line "%d %d %d  %22.15le %22.15le %22.15le  %d %d %d  %22.15le %22.15le %22.15le  %22.15le %22.15le %22.15le %22.15le  %22.15le %22.15le %22.15le"

run 10000
Generated 0 of 6 mixed pair_coeff terms from geometric mixing rule
Neighbor list info ...
  update: every = 1 steps, delay = 0 steps, check = yes
  max neighbors/atom: 2000, page size: 100000
  master list distance cutoff = 5.6389877
  ghost atom cutoff = 5.6389877
  binsize = 2.8194939, bins = 15 15 15
  5 neighbor lists, perpetual/occasional/extra = 5 0 0
  (1) pair oxdna2/excv, perpetual
      attributes: half, newton on
      pair build: half/bin/newton
      stencil: half/bin/3d
      bin: standard
  (2) pair oxdna2/hbond, perpetual, copy from (1)
      attributes: half, newton on
      pair build: copy
      stencil: none
      bin: none
  (3) pair oxdna2/xstk, perpetual, copy from (1)
      attributes: half, newton on
      pair build: copy
      stencil: none
      bin: none
  (4) pair oxdna2/coaxstk, perpetual, copy from (1)
      attributes: half, newton on
      pair build: copy
      stencil: none
      bin: none
  (5) pair oxdna2/dh, perpetual, copy from (1)
      attributes: half, newton on
      pair build: copy
      stencil: none
      bin: none
WARNING: Communication cutoff adjusted to 5.638987723814633 (../comm.cpp:703)
0  ekin = 1.10853632272819 |  erot = 2.81573649976629 | epot = -12.298895791142 | etot = -8.37462296864751
Per MPI rank memory allocation (min/avg/max) = 8.695 | 8.695 | 8.695 Mbytes
   Step          Temp          E_pair         E_mol          TotEng         Press          Volume    
         0   0.082113802   -1.3370157      0.10712616    -1.1190359     -6.6192825e-05  64000        
1000  ekin = 1.07640077431763 |  erot = 2.90684392233818 | epot = -12.357867665527 | etot = -8.37462296887117
2000  ekin = 1.05363107794411 |  erot = 2.99414178935849 | epot = -12.4223958364622 | etot = -8.37462296915963
3000  ekin = 1.04083382823095 |  erot = 3.0727436233977 | epot = -12.4882004210899 | etot = -8.37462296946121
4000  ekin = 1.03780093165924 |  erot = 3.13815143503913 | epot = -12.550575336422 | etot = -8.37462296972362
5000  ekin = 1.04371581655899 |  erot = 3.18681185449854 | epot = -12.6051506409707 | etot = -8.37462296991316
6000  ekin = 1.05738085799295 |  erot = 3.21642353087478 | epot = -12.6484273588876 | etot = -8.37462297001982
7000  ekin = 1.07739394884042 |  erot = 3.22597832036694 | epot = -12.677995239256 | etot = -8.37462297004865
8000  ekin = 1.10226637472088 |  erot = 3.21563966301731 | epot = -12.6925290077505 | etot = -8.37462297001231
9000  ekin = 1.13051291055327 |  erot = 3.18656247631365 | epot = -12.6916983567816 | etot = -8.37462296991467
10000  ekin = 1.16073704358064 |  erot = 3.14076972913371 | epot = -12.6761297424775 | etot = -8.37462296976316
     10000   0.085980522   -1.3031202      0.035507184   -1.1515393     -2.6900803e-05  64000        
Loop time of 0.06818 on 1 procs for 10000 steps with 10 atoms

Performance: 126723.379 tau/day, 146670.578 timesteps/s, 1.467 Matom-step/s
99.8% CPU use with 1 MPI tasks x no OpenMP threads

MPI task timing breakdown:
Section |  min time  |  avg time  |  max time  |%varavg| %total
---------------------------------------------------------------
Pair    | 0.055108   | 0.055108   | 0.055108   |   0.0 | 80.83
Bond    | 0.002914   | 0.002914   | 0.002914   |   0.0 |  4.27
Neigh   | 3.9e-05    | 3.9e-05    | 3.9e-05    |   0.0 |  0.06
Comm    | 0.000913   | 0.000913   | 0.000913   |   0.0 |  1.34
Output  | 0.000521   | 0.000521   | 0.000521   |   0.0 |  0.76
Modify  | 0.007774   | 0.007774   | 0.007774   |   0.0 | 11.40
Other   |            | 0.000911   |            |       |  1.34

Nlocal:             10 ave          10 max          10 min
Histogram: 1 0 0 0 0 0 0 0 0 0
Nghost:              0 ave           0 max           0 min
Histogram: 1 0 0 0 0 0 0 0 0 0
Neighs:             45 ave          45 max          45 min
Histogram: 1 0 0 0 0 0 0 0 0 0

Total # of neighbors = 45
Ave neighs/atom = 4.5
Ave special neighs/atom = 3.6
Neighbor list builds = 10
Dangerous builds = 0

write_data last_config.${number}.* nocoeff
write_data last_config.1.* nocoeff
System init for write_data ...
Generated 0 of 6 mixed pair_coeff terms from geometric mixing rule
#write_restart last_config.${number}.*
Total wall time: 0:00:00
