LAMMPS (22 Jul 2025 - Development - )
Reading data file ...
  orthogonal box = (0 0 -1.1656272) to (36.15 36.15 362.81506)
  1 by 1 by 4 MPI processor grid
  reading atoms ...
  40200 atoms
  reading velocities ...
  40200 velocities
  read_data CPU = 0.132 seconds
39199 atoms in group group_descriptor
ACE version: 2023.11.25
Recursive evaluator is used by ACE
Loading ../../../potentials/Cu-PBE-core-rep.ace
Total number of basis functions
	Cu: 16 (r=1) 726 (r>1)
Mapping LAMMPS atom type #1(Cu) -> ACE species type #0
atomic load lambda:
	fast potential: extract eam/apip:time_per_atom
	precise potential: extract pace/apip:time_per_atom
	lambda_input: const 0
	lambda: const 0
Neighbor list info ...
  update: every = 1 steps, delay = 0 steps, check = yes
  max neighbors/atom: 2000, page size: 100000
  master list distance cutoff = 10
  ghost atom cutoff = 10
  binsize = 5, bins = 8 8 73
  4 neighbor lists, perpetual/occasional/extra = 4 0 0
  (1) pair eam/fs/apip, perpetual
      attributes: full, newton on
      pair build: full/bin/atomonly
      stencil: full/bin/3d
      bin: standard
  (2) pair pace/apip, perpetual, trim from (4)
      attributes: full, newton on, cut 9.4
      pair build: trim
      stencil: none
      bin: none
  (3) pair zero, perpetual, half/full from (1)
      attributes: half, newton on, cut 10
      pair build: halffull/newton
      stencil: none
      bin: none
  (4) fix lambda/la/csp/apip, perpetual
      attributes: full, newton on, cut 10
      pair build: full/bin/atomonly
      stencil: full/bin/3d
      bin: standard
Setting up Verlet run ...
  Unit style    : metal
  Current step  : 0
  Time step     : 0.001
  eam/apip      : compute potential energies for local-averaging forces
  pace/apip     : compute potential energies for local-averaging forces
Per MPI rank memory allocation (min/avg/max) = 58.76 | 59.83 | 61.1 Mbytes
   Step     f_weight_atom[1] f_weight_atom[2]     S/CPU     
         0   0              0              0            
        10   2.1257621e-06  0.00019792624  2.7032512    
        20   2.2681114e-06  0.00021476786  2.4755269    
        30   2.476505e-06   0.00023329947  2.332796     
        40   2.4883221e-06  0.00023395141  2.3268435    
        50   2.5113439e-06  0.00023574268  2.3055148    
        60   2.5155954e-06  0.00023549535  2.3108214    
        70   2.520724e-06   0.00023632614  2.3033507    
        80   2.5325956e-06  0.00023806151  2.2890631    
        90   2.5503041e-06  0.00023791165  2.289054     
       100   2.5765227e-06  0.00024961977  2.215945     
Loop time of 42.5795 on 4 procs for 100 steps with 40200 atoms

Performance: 0.203 ns/day, 118.277 hours/ns, 2.349 timesteps/s, 94.412 katom-step/s
99.8% CPU use with 4 MPI tasks x no OpenMP threads

MPI task timing breakdown:
Section |  min time  |  avg time  |  max time  |%varavg| %total
---------------------------------------------------------------
Pair    | 2.4333     | 7.1181     | 20.975     | 299.9 | 16.72
Neigh   | 1.4208     | 1.4542     | 1.4925     |   2.6 |  3.42
Comm    | 0.0727     | 4.9648     | 18.779     | 358.1 | 11.66
Output  | 0.0002293  | 0.00029964 | 0.00038442 |   0.0 |  0.00
Modify  | 19.484     | 29.028     | 38.461     | 173.0 | 68.17
Other   |            | 0.01407    |            |       |  0.03

Nlocal:          10050 ave       10169 max       10000 min
Histogram: 2 1 0 0 0 0 0 0 0 1
Nghost:          18059 ave       19279 max       16908 min
Histogram: 2 0 0 0 0 0 0 0 0 2
Neighs:    1.77282e+06 ave 1.82762e+06 max 1.69559e+06 min
Histogram: 1 0 0 0 0 1 0 1 0 1
FullNghs:  3.54563e+06 ave 3.65319e+06 max 3.46439e+06 min
Histogram: 2 0 0 0 0 0 0 1 0 1

Total # of neighbors = 14182536
Ave neighs/atom = 352.7994
Neighbor list builds = 10
Dangerous builds = 0
Total wall time: 0:00:43
