LAMMPS (10 Sep 2025 - Development - patch_10Sep2025-52-ga29d50873f)
OMP_NUM_THREADS environment is not set. Defaulting to 1 thread.
  using 1 OpenMP thread(s) per MPI task
# 3d Lennard-Jones fluid with shockwave in x

include         shockparams.mod
# matches conditions of Holian et al. (2010)
# https://doi.org/10.1063/1.3486088
# J. Chem. Phys. 133, 114502 (2010)

variable 	nequil index 1000               # equilbration run length
variable 	nsteps index 3000               # shock run length
variable 	rho index 0.7071067811865475    # initial density
variable 	temp index 1.251                # initial temperature
variable        nx index 30                     # fcc units cells in axial direction
variable        ny index 5                      # fcc units cells in laterial direction
variable        nz index 5                      # fcc units cells in laterial direction
variable	nthermo equal 100               # human output interval
variable        nevery equal 1                  # computer sampling interval
variable	eps index 1.0e-5                # offset of first atom from (0,0,0)
variable	dt index 0.0005                 # timestep
variable	up index 22.4                   # shock particle velocity
variable	mass index 1.0                  # LJ mass
variable        leftwindow index 50             # number of time samples before shockfront
variable        rightwindow index 150           # number of time samples after shockfront
variable        leftbulkpad index 5.0           # ignore particles within this distance from left surface
variable        rightbulkpad index 30.0         # ignore particles within this distance from right surface
include         shocksetup.mod
units		lj
atom_style	atomic
atom_modify 	map yes sort 0 0

boundary	f p p
lattice		fcc ${rho} origin ${eps} ${eps} ${eps}
lattice		fcc 0.7071067811865475 origin ${eps} ${eps} ${eps}
lattice		fcc 0.7071067811865475 origin 1.0e-5 ${eps} ${eps}
lattice		fcc 0.7071067811865475 origin 1.0e-5 1.0e-5 ${eps}
lattice		fcc 0.7071067811865475 origin 1.0e-5 1.0e-5 1.0e-5
Lattice spacing in x,y,z = 1.7817974 1.7817974 1.7817974

region		box block 0 ${nx} 0 ${ny} 0 ${nz} units lattice
region		box block 0 30 0 ${ny} 0 ${nz} units lattice
region		box block 0 30 0 5 0 ${nz} units lattice
region		box block 0 30 0 5 0 5 units lattice

create_box	1 box
Created orthogonal box = (0 0 0) to (53.453923 8.9089872 8.9089872)
  4 by 1 by 1 MPI processor grid
create_atoms	1 region box
Created 3000 atoms
  using lattice units in orthogonal box = (0 0 0) to (53.453923 8.9089872 8.9089872)
  create_atoms CPU = 0.000 seconds
mass		1 ${mass}
mass		1 1.0

# define property to store timestep it crosses threshold velocity

fix             myidump all property/atom i_tshock d_xshock d_vxhist010 d_vxhist020 d_vxhist030 d_vxhist040 d_vxhist050 d_vxhist060 d_vxhist070 d_vxhist080 d_vxhist090 d_vxhist100 d_vxhist110 d_vxhist120 d_vxhist130 d_vxhist140 d_vxhist150 d_vxhist160 d_vxhist170 d_vxhist180 d_vxhist190 d_vxhist200

set             group all i_tshock -1
Setting atom values ...
  3000 settings made for i_tshock
set             group all d_xshock 0.0
Setting atom values ...
  3000 settings made for d_xshock
set             group all d_vxhist010 -1e20 d_vxhist020 -1e20 d_vxhist030 -1e20 d_vxhist040 -1e20 d_vxhist050 -1e20 d_vxhist060 -1e20 d_vxhist070 -1e20 d_vxhist080 -1e20 d_vxhist090 -1e20 d_vxhist100 -1e20 d_vxhist110 -1e20 d_vxhist120 -1e20 d_vxhist130 -1e20 d_vxhist140 -1e20 d_vxhist150 -1e20 d_vxhist160 -1e20 d_vxhist170 -1e20 d_vxhist180 -1e20 d_vxhist190 -1e20 d_vxhist200 -1e20
Setting atom values ...
  3000 settings made for d_vxhist010
  3000 settings made for d_vxhist020
  3000 settings made for d_vxhist030
  3000 settings made for d_vxhist040
  3000 settings made for d_vxhist050
  3000 settings made for d_vxhist060
  3000 settings made for d_vxhist070
  3000 settings made for d_vxhist080
  3000 settings made for d_vxhist090
  3000 settings made for d_vxhist100
  3000 settings made for d_vxhist110
  3000 settings made for d_vxhist120
  3000 settings made for d_vxhist130
  3000 settings made for d_vxhist140
  3000 settings made for d_vxhist150
  3000 settings made for d_vxhist160
  3000 settings made for d_vxhist170
  3000 settings made for d_vxhist180
  3000 settings made for d_vxhist190
  3000 settings made for d_vxhist200

velocity	all create ${temp} 87287
velocity	all create 1.251 87287

pair_style	lj/cubic
pair_coeff 	* * 1.0 1.0

neighbor	0.3 bin
neigh_modify	every 20 delay 0 check no

thermo_style  	custom step temp pe press lx ly lz
run 0
WARNING: No fixes with time integration, atoms won't move
For more information see https://docs.lammps.org/err0028 (src/verlet.cpp:60)
Generated 0 of 0 mixed pair_coeff terms from geometric mixing rule
Neighbor list info ...
  update: every = 20 steps, delay = 0 steps, check = no
  max neighbors/atom: 2000, page size: 100000
  master list distance cutoff = 2.0370519
  ghost atom cutoff = 2.0370519
  binsize = 1.0185259, bins = 53 9 9
  1 neighbor lists, perpetual/occasional/extra = 1 0 0
  (1) pair lj/cubic, perpetual
      attributes: half, newton on
      pair build: half/bin/atomonly/newton
      stencil: half/bin/3d
      bin: standard
Per MPI rank memory allocation (min/avg/max) = 2.636 | 2.642 | 2.647 Mbytes
   Step          Temp          PotEng         Press            Lx             Ly             Lz      
         0   1.251         -4.4495922     -3.3340495      53.453923      8.9089872      8.9089872    
Loop time of 1.99425e-06 on 4 procs for 0 steps with 3000 atoms

100.3% CPU use with 4 MPI tasks x 1 OpenMP threads

MPI task timing breakdown:
Section |  min time  |  avg time  |  max time  |%varavg| %total
---------------------------------------------------------------
Pair    | 0          | 0          | 0          |   0.0 |  0.00
Neigh   | 0          | 0          | 0          |   0.0 |  0.00
Comm    | 0          | 0          | 0          |   0.0 |  0.00
Output  | 0          | 0          | 0          |   0.0 |  0.00
Modify  | 0          | 0          | 0          |   0.0 |  0.00
Other   |            | 1.994e-06  |            |       |100.00

Nlocal:            750 ave         750 max         750 min
Histogram: 4 0 0 0 0 0 0 0 0 0
Nghost:        1359.25 ave        1500 max        1162 min
Histogram: 1 0 0 1 0 0 0 0 0 2
Neighs:           6675 ave        6750 max        6530 min
Histogram: 1 0 0 0 0 0 1 0 0 2

Total # of neighbors = 26700
Ave neighs/atom = 8.9
Neighbor list builds = 0
Dangerous builds not checked

timestep	${dt}
timestep	0.0005
variable        tdamp equal ${dt}*10.0
variable        tdamp equal 0.0005*10.0
fix		mynvt all nvt temp ${temp} ${temp} ${tdamp}
fix		mynvt all nvt temp 1.251 ${temp} ${tdamp}
fix		mynvt all nvt temp 1.251 1.251 ${tdamp}
fix		mynvt all nvt temp 1.251 1.251 0.005
fix 		xwalls all wall/reflect xlo EDGE xhi EDGE

run		${nequil}
run		1000
Generated 0 of 0 mixed pair_coeff terms from geometric mixing rule
Per MPI rank memory allocation (min/avg/max) = 2.636 | 2.642 | 2.647 Mbytes
   Step          Temp          PotEng         Press            Lx             Ly             Lz      
         0   1.251         -4.4495922     -3.3340495      53.453923      8.9089872      8.9089872    
      1000   1.3047894     -3.3407357      1.9122431      53.453923      8.9089872      8.9089872    
Loop time of 0.187058 on 4 procs for 1000 steps with 3000 atoms

Performance: 230944.103 tau/day, 5345.928 timesteps/s, 16.038 Matom-step/s
99.6% CPU use with 4 MPI tasks x 1 OpenMP threads

MPI task timing breakdown:
Section |  min time  |  avg time  |  max time  |%varavg| %total
---------------------------------------------------------------
Pair    | 0.12104    | 0.12991    | 0.13498    |   1.5 | 69.45
Neigh   | 0.02307    | 0.024409   | 0.024868   |   0.5 | 13.05
Comm    | 0.012643   | 0.01809    | 0.029271   |   4.9 |  9.67
Output  | 1.8347e-05 | 2.0263e-05 | 2.5356e-05 |   0.0 |  0.01
Modify  | 0.012199   | 0.013385   | 0.016198   |   1.4 |  7.16
Other   |            | 0.001247   |            |       |  0.67

Nlocal:            750 ave         768 max         720 min
Histogram: 1 0 0 0 0 0 0 2 0 1
Nghost:         1248.5 ave        1387 max        1093 min
Histogram: 1 1 0 0 0 0 0 0 0 2
Neighs:           8689 ave        8936 max        8013 min
Histogram: 1 0 0 0 0 0 0 0 0 3

Total # of neighbors = 34756
Ave neighs/atom = 11.585333
Neighbor list builds = 50
Dangerous builds not checked

# nemd simulation

reset_timestep	0

# estimate location of shock front assuming ideal kinematics
# i.e. P(t) = P0 * (L0+u0*t-xs)/L0, requires u1 = 0
compute	   	mymom all momentum
variable	xshock equal (1.0+c_mymom[1]/(atoms*${mass})/${up})*lx-${up}*time
variable	xshock equal (1.0+c_mymom[1]/(atoms*1.0)/${up})*lx-${up}*time
variable	xshock equal (1.0+c_mymom[1]/(atoms*1.0)/22.4)*lx-${up}*time
variable	xshock equal (1.0+c_mymom[1]/(atoms*1.0)/22.4)*lx-22.4*time
fix             xshockprev all vector ${nthermo} v_xshock nmax 2
fix             xshockprev all vector 100 v_xshock nmax 2
variable        ushock equal (f_xshockprev[2]-f_xshockprev[1])/(${nthermo}*${dt})+${up}
variable        ushock equal (f_xshockprev[2]-f_xshockprev[1])/(100*${dt})+${up}
variable        ushock equal (f_xshockprev[2]-f_xshockprev[1])/(100*0.0005)+${up}
variable        ushock equal (f_xshockprev[2]-f_xshockprev[1])/(100*0.0005)+22.4
run             ${nthermo} # needed to fil both entries in xshockprev vector
run             100 
Generated 0 of 0 mixed pair_coeff terms from geometric mixing rule
Per MPI rank memory allocation (min/avg/max) = 2.636 | 2.642 | 2.647 Mbytes
   Step          Temp          PotEng         Press            Lx             Ly             Lz      
         0   1.3047894     -3.3407357      1.9122431      53.453923      8.9089872      8.9089872    
       100   1.2478648     -3.3354146      1.8621644      53.453923      8.9089872      8.9089872    
Loop time of 0.017798 on 4 procs for 100 steps with 3000 atoms

Performance: 242723.305 tau/day, 5618.595 timesteps/s, 16.856 Matom-step/s
99.9% CPU use with 4 MPI tasks x 1 OpenMP threads

MPI task timing breakdown:
Section |  min time  |  avg time  |  max time  |%varavg| %total
---------------------------------------------------------------
Pair    | 0.011568   | 0.012594   | 0.013099   |   0.5 | 70.76
Neigh   | 0.002153   | 0.0022661  | 0.0023287  |   0.1 | 12.73
Comm    | 0.0010884  | 0.0016209  | 0.0028795  |   1.8 |  9.11
Output  | 7.346e-06  | 8.687e-06  | 1.2474e-05 |   0.0 |  0.05
Modify  | 0.0010807  | 0.0011746  | 0.0014014  |   0.4 |  6.60
Other   |            | 0.0001335  |            |       |  0.75

Nlocal:            750 ave         768 max         720 min
Histogram: 1 0 0 0 0 0 0 2 0 1
Nghost:         1241.5 ave        1389 max        1078 min
Histogram: 1 1 0 0 0 0 0 0 0 2
Neighs:        8689.75 ave        8978 max        7982 min
Histogram: 1 0 0 0 0 0 0 0 1 2

Total # of neighbors = 34759
Ave neighs/atom = 11.586333
Neighbor list builds = 5
Dangerous builds not checked

thermo          ${nthermo}
thermo          100
thermo_style    custom step temp pe density etotal press v_xshock v_ushock

# add impact velocity in minus x

variable	upneg equal -${up}
variable	upneg equal -22.4
velocity	all set ${upneg} 0.0 0.0 sum yes units box
velocity	all set -22.4 0.0 0.0 sum yes units box

unfix		mynvt
fix		mynve all nve

# create group for bulk atoms, to avoid surface artefacts

variable        bulklo equal xlo+${leftbulkpad}
variable        bulklo equal xlo+5.0
variable        bulkhi equal xhi-${rightbulkpad}
variable        bulkhi equal xhi-30.0
region		bulk block ${bulklo} ${bulkhi} INF INF INF INF units box
region		bulk block 5 ${bulkhi} INF INF INF INF units box
region		bulk block 5 23.4539230884204 INF INF INF INF units box
group           bulk region bulk
1037 atoms in group bulk


# fix set command to check for threshold crossings every step
# when crossing occurs set d_xshock first, then set i_tshock

variable        vxthresh equal ${upneg}*0.5 # threshold velocity = (u0+u1)/2
variable        vxthresh equal -22.4*0.5 
fix             vxave all ave/atom 1 ${nevery} ${nevery} vx
fix             vxave all ave/atom 1 1 ${nevery} vx
fix             vxave all ave/atom 1 1 1 vx
variable        istart atom "f_vxave > v_vxthresh && i_tshock == -1"
variable        tshock equal step-${nevery}
variable        tshock equal step-1
variable        inew atom ternary(v_istart,v_tshock,i_tshock)
variable        dnew atom ternary(v_istart,x,d_xshock)
fix             setshock all set ${nevery} 0 group all d_xshock v_dnew i_tshock v_inew
fix             setshock all set 1 0 group all d_xshock v_dnew i_tshock v_inew

# set up vx history, c_vxhist[*][1] not yet supported

variable nhistory equal ${leftwindow}+${rightwindow}
variable nhistory equal 50+${rightwindow}
variable nhistory equal 50+150
fix vxhist all store/state 0 vx history ${nevery} ${nhistory} 0
fix vxhist all store/state 0 vx history 1 ${nhistory} 0
fix vxhist all store/state 0 vx history 1 200 0
compute vxhist all property/atom history[$(v_nhistory-010+1)][1] history[$(v_nhistory-020+1)][1] history[$(v_nhistory-030+1)][1] history[$(v_nhistory-040+1)][1] history[$(v_nhistory-050+1)][1] history[$(v_nhistory-060+1)][1] history[$(v_nhistory-070+1)][1] history[$(v_nhistory-080+1)][1] history[$(v_nhistory-090+1)][1] history[$(v_nhistory-100+1)][1] history[$(v_nhistory-110+1)][1] history[$(v_nhistory-120+1)][1] history[$(v_nhistory-130+1)][1] history[$(v_nhistory-140+1)][1] history[$(v_nhistory-150+1)][1] history[$(v_nhistory-160+1)][1] history[$(v_nhistory-170+1)][1] history[$(v_nhistory-180+1)][1] history[$(v_nhistory-190+1)][1] history[$(v_nhistory-200+1)][1] history vxhist
compute vxhist all property/atom history[191][1] history[$(v_nhistory-020+1)][1] history[$(v_nhistory-030+1)][1] history[$(v_nhistory-040+1)][1] history[$(v_nhistory-050+1)][1] history[$(v_nhistory-060+1)][1] history[$(v_nhistory-070+1)][1] history[$(v_nhistory-080+1)][1] history[$(v_nhistory-090+1)][1] history[$(v_nhistory-100+1)][1] history[$(v_nhistory-110+1)][1] history[$(v_nhistory-120+1)][1] history[$(v_nhistory-130+1)][1] history[$(v_nhistory-140+1)][1] history[$(v_nhistory-150+1)][1] history[$(v_nhistory-160+1)][1] history[$(v_nhistory-170+1)][1] history[$(v_nhistory-180+1)][1] history[$(v_nhistory-190+1)][1] history[$(v_nhistory-200+1)][1] history vxhist
compute vxhist all property/atom history[191][1] history[181][1] history[$(v_nhistory-030+1)][1] history[$(v_nhistory-040+1)][1] history[$(v_nhistory-050+1)][1] history[$(v_nhistory-060+1)][1] history[$(v_nhistory-070+1)][1] history[$(v_nhistory-080+1)][1] history[$(v_nhistory-090+1)][1] history[$(v_nhistory-100+1)][1] history[$(v_nhistory-110+1)][1] history[$(v_nhistory-120+1)][1] history[$(v_nhistory-130+1)][1] history[$(v_nhistory-140+1)][1] history[$(v_nhistory-150+1)][1] history[$(v_nhistory-160+1)][1] history[$(v_nhistory-170+1)][1] history[$(v_nhistory-180+1)][1] history[$(v_nhistory-190+1)][1] history[$(v_nhistory-200+1)][1] history vxhist
compute vxhist all property/atom history[191][1] history[181][1] history[171][1] history[$(v_nhistory-040+1)][1] history[$(v_nhistory-050+1)][1] history[$(v_nhistory-060+1)][1] history[$(v_nhistory-070+1)][1] history[$(v_nhistory-080+1)][1] history[$(v_nhistory-090+1)][1] history[$(v_nhistory-100+1)][1] history[$(v_nhistory-110+1)][1] history[$(v_nhistory-120+1)][1] history[$(v_nhistory-130+1)][1] history[$(v_nhistory-140+1)][1] history[$(v_nhistory-150+1)][1] history[$(v_nhistory-160+1)][1] history[$(v_nhistory-170+1)][1] history[$(v_nhistory-180+1)][1] history[$(v_nhistory-190+1)][1] history[$(v_nhistory-200+1)][1] history vxhist
compute vxhist all property/atom history[191][1] history[181][1] history[171][1] history[161][1] history[$(v_nhistory-050+1)][1] history[$(v_nhistory-060+1)][1] history[$(v_nhistory-070+1)][1] history[$(v_nhistory-080+1)][1] history[$(v_nhistory-090+1)][1] history[$(v_nhistory-100+1)][1] history[$(v_nhistory-110+1)][1] history[$(v_nhistory-120+1)][1] history[$(v_nhistory-130+1)][1] history[$(v_nhistory-140+1)][1] history[$(v_nhistory-150+1)][1] history[$(v_nhistory-160+1)][1] history[$(v_nhistory-170+1)][1] history[$(v_nhistory-180+1)][1] history[$(v_nhistory-190+1)][1] history[$(v_nhistory-200+1)][1] history vxhist
compute vxhist all property/atom history[191][1] history[181][1] history[171][1] history[161][1] history[151][1] history[$(v_nhistory-060+1)][1] history[$(v_nhistory-070+1)][1] history[$(v_nhistory-080+1)][1] history[$(v_nhistory-090+1)][1] history[$(v_nhistory-100+1)][1] history[$(v_nhistory-110+1)][1] history[$(v_nhistory-120+1)][1] history[$(v_nhistory-130+1)][1] history[$(v_nhistory-140+1)][1] history[$(v_nhistory-150+1)][1] history[$(v_nhistory-160+1)][1] history[$(v_nhistory-170+1)][1] history[$(v_nhistory-180+1)][1] history[$(v_nhistory-190+1)][1] history[$(v_nhistory-200+1)][1] history vxhist
compute vxhist all property/atom history[191][1] history[181][1] history[171][1] history[161][1] history[151][1] history[141][1] history[$(v_nhistory-070+1)][1] history[$(v_nhistory-080+1)][1] history[$(v_nhistory-090+1)][1] history[$(v_nhistory-100+1)][1] history[$(v_nhistory-110+1)][1] history[$(v_nhistory-120+1)][1] history[$(v_nhistory-130+1)][1] history[$(v_nhistory-140+1)][1] history[$(v_nhistory-150+1)][1] history[$(v_nhistory-160+1)][1] history[$(v_nhistory-170+1)][1] history[$(v_nhistory-180+1)][1] history[$(v_nhistory-190+1)][1] history[$(v_nhistory-200+1)][1] history vxhist
compute vxhist all property/atom history[191][1] history[181][1] history[171][1] history[161][1] history[151][1] history[141][1] history[131][1] history[$(v_nhistory-080+1)][1] history[$(v_nhistory-090+1)][1] history[$(v_nhistory-100+1)][1] history[$(v_nhistory-110+1)][1] history[$(v_nhistory-120+1)][1] history[$(v_nhistory-130+1)][1] history[$(v_nhistory-140+1)][1] history[$(v_nhistory-150+1)][1] history[$(v_nhistory-160+1)][1] history[$(v_nhistory-170+1)][1] history[$(v_nhistory-180+1)][1] history[$(v_nhistory-190+1)][1] history[$(v_nhistory-200+1)][1] history vxhist
compute vxhist all property/atom history[191][1] history[181][1] history[171][1] history[161][1] history[151][1] history[141][1] history[131][1] history[121][1] history[$(v_nhistory-090+1)][1] history[$(v_nhistory-100+1)][1] history[$(v_nhistory-110+1)][1] history[$(v_nhistory-120+1)][1] history[$(v_nhistory-130+1)][1] history[$(v_nhistory-140+1)][1] history[$(v_nhistory-150+1)][1] history[$(v_nhistory-160+1)][1] history[$(v_nhistory-170+1)][1] history[$(v_nhistory-180+1)][1] history[$(v_nhistory-190+1)][1] history[$(v_nhistory-200+1)][1] history vxhist
compute vxhist all property/atom history[191][1] history[181][1] history[171][1] history[161][1] history[151][1] history[141][1] history[131][1] history[121][1] history[111][1] history[$(v_nhistory-100+1)][1] history[$(v_nhistory-110+1)][1] history[$(v_nhistory-120+1)][1] history[$(v_nhistory-130+1)][1] history[$(v_nhistory-140+1)][1] history[$(v_nhistory-150+1)][1] history[$(v_nhistory-160+1)][1] history[$(v_nhistory-170+1)][1] history[$(v_nhistory-180+1)][1] history[$(v_nhistory-190+1)][1] history[$(v_nhistory-200+1)][1] history vxhist
compute vxhist all property/atom history[191][1] history[181][1] history[171][1] history[161][1] history[151][1] history[141][1] history[131][1] history[121][1] history[111][1] history[101][1] history[$(v_nhistory-110+1)][1] history[$(v_nhistory-120+1)][1] history[$(v_nhistory-130+1)][1] history[$(v_nhistory-140+1)][1] history[$(v_nhistory-150+1)][1] history[$(v_nhistory-160+1)][1] history[$(v_nhistory-170+1)][1] history[$(v_nhistory-180+1)][1] history[$(v_nhistory-190+1)][1] history[$(v_nhistory-200+1)][1] history vxhist
compute vxhist all property/atom history[191][1] history[181][1] history[171][1] history[161][1] history[151][1] history[141][1] history[131][1] history[121][1] history[111][1] history[101][1] history[91][1] history[$(v_nhistory-120+1)][1] history[$(v_nhistory-130+1)][1] history[$(v_nhistory-140+1)][1] history[$(v_nhistory-150+1)][1] history[$(v_nhistory-160+1)][1] history[$(v_nhistory-170+1)][1] history[$(v_nhistory-180+1)][1] history[$(v_nhistory-190+1)][1] history[$(v_nhistory-200+1)][1] history vxhist
compute vxhist all property/atom history[191][1] history[181][1] history[171][1] history[161][1] history[151][1] history[141][1] history[131][1] history[121][1] history[111][1] history[101][1] history[91][1] history[81][1] history[$(v_nhistory-130+1)][1] history[$(v_nhistory-140+1)][1] history[$(v_nhistory-150+1)][1] history[$(v_nhistory-160+1)][1] history[$(v_nhistory-170+1)][1] history[$(v_nhistory-180+1)][1] history[$(v_nhistory-190+1)][1] history[$(v_nhistory-200+1)][1] history vxhist
compute vxhist all property/atom history[191][1] history[181][1] history[171][1] history[161][1] history[151][1] history[141][1] history[131][1] history[121][1] history[111][1] history[101][1] history[91][1] history[81][1] history[71][1] history[$(v_nhistory-140+1)][1] history[$(v_nhistory-150+1)][1] history[$(v_nhistory-160+1)][1] history[$(v_nhistory-170+1)][1] history[$(v_nhistory-180+1)][1] history[$(v_nhistory-190+1)][1] history[$(v_nhistory-200+1)][1] history vxhist
compute vxhist all property/atom history[191][1] history[181][1] history[171][1] history[161][1] history[151][1] history[141][1] history[131][1] history[121][1] history[111][1] history[101][1] history[91][1] history[81][1] history[71][1] history[61][1] history[$(v_nhistory-150+1)][1] history[$(v_nhistory-160+1)][1] history[$(v_nhistory-170+1)][1] history[$(v_nhistory-180+1)][1] history[$(v_nhistory-190+1)][1] history[$(v_nhistory-200+1)][1] history vxhist
compute vxhist all property/atom history[191][1] history[181][1] history[171][1] history[161][1] history[151][1] history[141][1] history[131][1] history[121][1] history[111][1] history[101][1] history[91][1] history[81][1] history[71][1] history[61][1] history[51][1] history[$(v_nhistory-160+1)][1] history[$(v_nhistory-170+1)][1] history[$(v_nhistory-180+1)][1] history[$(v_nhistory-190+1)][1] history[$(v_nhistory-200+1)][1] history vxhist
compute vxhist all property/atom history[191][1] history[181][1] history[171][1] history[161][1] history[151][1] history[141][1] history[131][1] history[121][1] history[111][1] history[101][1] history[91][1] history[81][1] history[71][1] history[61][1] history[51][1] history[41][1] history[$(v_nhistory-170+1)][1] history[$(v_nhistory-180+1)][1] history[$(v_nhistory-190+1)][1] history[$(v_nhistory-200+1)][1] history vxhist
compute vxhist all property/atom history[191][1] history[181][1] history[171][1] history[161][1] history[151][1] history[141][1] history[131][1] history[121][1] history[111][1] history[101][1] history[91][1] history[81][1] history[71][1] history[61][1] history[51][1] history[41][1] history[31][1] history[$(v_nhistory-180+1)][1] history[$(v_nhistory-190+1)][1] history[$(v_nhistory-200+1)][1] history vxhist
compute vxhist all property/atom history[191][1] history[181][1] history[171][1] history[161][1] history[151][1] history[141][1] history[131][1] history[121][1] history[111][1] history[101][1] history[91][1] history[81][1] history[71][1] history[61][1] history[51][1] history[41][1] history[31][1] history[21][1] history[$(v_nhistory-190+1)][1] history[$(v_nhistory-200+1)][1] history vxhist
compute vxhist all property/atom history[191][1] history[181][1] history[171][1] history[161][1] history[151][1] history[141][1] history[131][1] history[121][1] history[111][1] history[101][1] history[91][1] history[81][1] history[71][1] history[61][1] history[51][1] history[41][1] history[31][1] history[21][1] history[11][1] history[$(v_nhistory-200+1)][1] history vxhist
compute vxhist all property/atom history[191][1] history[181][1] history[171][1] history[161][1] history[151][1] history[141][1] history[131][1] history[121][1] history[111][1] history[101][1] history[91][1] history[81][1] history[71][1] history[61][1] history[51][1] history[41][1] history[31][1] history[21][1] history[11][1] history[1][1] history vxhist

# store vxhist at end of window

variable        step_rightwindow atom i_tshock + ${rightwindow}*${nevery}
variable        step_rightwindow atom i_tshock + 150*${nevery}
variable        step_rightwindow atom i_tshock + 150*1
variable        irightwindow atom step == v_step_rightwindow
variable        dnewvxhist010 atom ternary(v_irightwindow,c_vxhist[1], d_vxhist010)
variable        dnewvxhist020 atom ternary(v_irightwindow,c_vxhist[2], d_vxhist020)
variable        dnewvxhist030 atom ternary(v_irightwindow,c_vxhist[3], d_vxhist030)
variable        dnewvxhist040 atom ternary(v_irightwindow,c_vxhist[4], d_vxhist040)
variable        dnewvxhist050 atom ternary(v_irightwindow,c_vxhist[5], d_vxhist050)
variable        dnewvxhist060 atom ternary(v_irightwindow,c_vxhist[6], d_vxhist060)
variable        dnewvxhist070 atom ternary(v_irightwindow,c_vxhist[7], d_vxhist070)
variable        dnewvxhist080 atom ternary(v_irightwindow,c_vxhist[8], d_vxhist080)
variable        dnewvxhist090 atom ternary(v_irightwindow,c_vxhist[9], d_vxhist090)
variable        dnewvxhist100 atom ternary(v_irightwindow,c_vxhist[10],d_vxhist100)
variable        dnewvxhist110 atom ternary(v_irightwindow,c_vxhist[11],d_vxhist110)
variable        dnewvxhist120 atom ternary(v_irightwindow,c_vxhist[12],d_vxhist120)
variable        dnewvxhist130 atom ternary(v_irightwindow,c_vxhist[13],d_vxhist130)
variable        dnewvxhist140 atom ternary(v_irightwindow,c_vxhist[14],d_vxhist140)
variable        dnewvxhist150 atom ternary(v_irightwindow,c_vxhist[15],d_vxhist150)
variable        dnewvxhist160 atom ternary(v_irightwindow,c_vxhist[16],d_vxhist160)
variable        dnewvxhist170 atom ternary(v_irightwindow,c_vxhist[17],d_vxhist170)
variable        dnewvxhist180 atom ternary(v_irightwindow,c_vxhist[18],d_vxhist180)
variable        dnewvxhist190 atom ternary(v_irightwindow,c_vxhist[19],d_vxhist190)
variable        dnewvxhist200 atom ternary(v_irightwindow,c_vxhist[20],d_vxhist200)

fix             sethist all set ${nevery} 0 group all d_vxhist010 v_dnewvxhist010 d_vxhist020 v_dnewvxhist020 d_vxhist030 v_dnewvxhist030 d_vxhist040 v_dnewvxhist040 d_vxhist050 v_dnewvxhist050 d_vxhist060 v_dnewvxhist060 d_vxhist070 v_dnewvxhist070 d_vxhist080 v_dnewvxhist080 d_vxhist090 v_dnewvxhist090 d_vxhist100 v_dnewvxhist100 d_vxhist110 v_dnewvxhist110 d_vxhist120 v_dnewvxhist120 d_vxhist130 v_dnewvxhist130 d_vxhist140 v_dnewvxhist140 d_vxhist150 v_dnewvxhist150 d_vxhist160 v_dnewvxhist160 d_vxhist170 v_dnewvxhist170 d_vxhist180 v_dnewvxhist180 d_vxhist190 v_dnewvxhist190 d_vxhist200 v_dnewvxhist200
fix             sethist all set 1 0 group all d_vxhist010 v_dnewvxhist010 d_vxhist020 v_dnewvxhist020 d_vxhist030 v_dnewvxhist030 d_vxhist040 v_dnewvxhist040 d_vxhist050 v_dnewvxhist050 d_vxhist060 v_dnewvxhist060 d_vxhist070 v_dnewvxhist070 d_vxhist080 v_dnewvxhist080 d_vxhist090 v_dnewvxhist090 d_vxhist100 v_dnewvxhist100 d_vxhist110 v_dnewvxhist110 d_vxhist120 v_dnewvxhist120 d_vxhist130 v_dnewvxhist130 d_vxhist140 v_dnewvxhist140 d_vxhist150 v_dnewvxhist150 d_vxhist160 v_dnewvxhist160 d_vxhist170 v_dnewvxhist170 d_vxhist180 v_dnewvxhist180 d_vxhist190 v_dnewvxhist190 d_vxhist200 v_dnewvxhist200

# run

run		${nsteps}
run		3000
Generated 0 of 0 mixed pair_coeff terms from geometric mixing rule
Per MPI rank memory allocation (min/avg/max) = 27.89 | 27.89 | 27.9 Mbytes
   Step          Temp          PotEng        Density         TotEng         Press         v_xshock       v_ushock   
       100   168.0521      -3.3354146      0.70710678     248.6587       119.77125     -1.0393488      0.025683196  
       200   165.55346      0.40948646     0.70710678     248.65689      130.10651      0.40609583    -1017.7696    
       300   162.99226      4.2656231      0.70710678     248.67251      141.01662      1.6705872      47.689827    
       400   161.07098      7.1570363      0.70710678     248.68297      149.36533      2.7186884      43.362024    
       500   157.98008      11.826385      0.70710678     248.71752      162.44552      4.0748047      49.522327    
       600   155.91711      14.88682       0.70710678     248.68453      171.50972      5.1742154      44.388213    
       700   153.81379      18.065222      0.70710678     248.709        180.5597       6.3295487      45.506667    
       800   151.34613      21.781393      0.70710678     248.72491      191.14843      7.5426314      46.661655    
       900   148.09012      26.675498      0.70710678     248.73664      204.62897      8.5881294      43.309958    
      1000   146.84373      28.552967      0.70710678     248.74513      210.43612      9.6021539      42.68049     
      1100   144.20481      32.522333      0.70710678     248.75744      221.64385      10.888119      48.119299    
      1200   141.39168      36.719379      0.70710678     248.73621      233.36896      12.011238      44.862388    
      1300   137.69626      42.280486      0.70710678     248.75602      248.52646      13.149234      45.159925    
      1400   138.2508       41.432654      0.70710678     248.73973      247.73154      14.361711      46.649531    
      1500   134.71095      46.731462      0.70710678     248.73054      262.26246      15.608424      47.334261    
      1600   132.4334       50.168519      0.70710678     248.7524       271.88563      16.601418      42.259879    
      1700   129.99957      53.850976      0.70710678     248.78533      282.25054      17.774517      45.861972    
      1800   127.57488      57.513146      0.70710678     248.81167      292.93033      18.982536      46.560388    
      1900   124.67905      61.879307      0.70710678     248.83555      305.12444      20.109417      44.937618    
      2000   121.36516      66.838152      0.70710678     248.82521      318.90308      21.192268      44.057024    
      2100   118.97004      70.401263      0.70710678     248.79684      329.12521      22.454081      47.636248    
      2200   115.54467      75.572676      0.70710678     248.83191      343.26226      23.635393      46.026242    
      2300   115.02604      76.320153      0.70710678     248.80171      346.06439      24.413448      37.961111    
      2400   115.30979      75.886832      0.70710678     248.79387      345.54525      25.793829      50.007607    
      2500   114.16775      77.616389      0.70710678     248.81093      350.287        26.779356      42.110559    
      2600   116.85848      73.575743      0.70710678     248.80503      339.19085      28.030385      47.42058     
      2700   118.18305      71.610239      0.70710678     248.82572      333.2564       29.124268      44.277658    
      2800   121.5174       66.646291      0.70710678     248.86163      319.62788      30.220831      44.33125     
      2900   125.15724      61.201001      0.70710678     248.87429      304.72218      31.87266       55.43659     
      3000   126.44735      59.281306      0.70710678     248.88911      298.90512      33.262938      50.205555    
      3100   128.22984      56.601377      0.70710678     248.88202      291.07308      34.613479      49.410826    
Loop time of 7.42137 on 4 procs for 3000 steps with 3000 atoms

Performance: 17463.080 tau/day, 404.238 timesteps/s, 1.213 Matom-step/s
79.8% CPU use with 4 MPI tasks x 1 OpenMP threads

MPI task timing breakdown:
Section |  min time  |  avg time  |  max time  |%varavg| %total
---------------------------------------------------------------
Pair    | 0.14082    | 1.3252     | 2.8882     |  93.4 | 17.86
Neigh   | 0.013766   | 0.12891    | 0.28147    |  28.9 |  1.74
Comm    | 0.6338     | 3.7446     | 6.4367     | 115.4 | 50.46
Output  | 0.0038867  | 0.017999   | 0.031793   |   8.0 |  0.24
Modify  | 0.79541    | 2.195      | 3.5997     |  72.3 | 29.58
Other   |            | 0.009677   |            |       |  0.13

Nlocal:            750 ave        1479 max           3 min
Histogram: 1 0 1 0 0 0 0 1 0 1
Nghost:           1207 ave        2093 max          10 min
Histogram: 1 0 0 1 0 0 0 0 0 2
Neighs:        15004.5 ave       34619 max           1 min
Histogram: 2 0 0 0 0 0 1 0 0 1

Total # of neighbors = 60018
Ave neighs/atom = 20.006
Neighbor list builds = 150
Dangerous builds not checked

# average vxhist to get CVCF

variable vxhist010 atom d_vxhist010
compute vxhistav010 bulk reduce ave v_vxhist010
variable cvcfhist010 equal c_vxhistav010/${up}+1.0
variable cvcfhist010 equal c_vxhistav010/22.4+1.0

variable vxhist020 atom d_vxhist020
compute vxhistav020 bulk reduce ave v_vxhist020
variable cvcfhist020 equal c_vxhistav020/${up}+1.0
variable cvcfhist020 equal c_vxhistav020/22.4+1.0

variable vxhist030 atom d_vxhist030
compute vxhistav030 bulk reduce ave v_vxhist030
variable cvcfhist030 equal c_vxhistav030/${up}+1.0
variable cvcfhist030 equal c_vxhistav030/22.4+1.0

variable vxhist040 atom d_vxhist040
compute vxhistav040 bulk reduce ave v_vxhist040
variable cvcfhist040 equal c_vxhistav040/${up}+1.0
variable cvcfhist040 equal c_vxhistav040/22.4+1.0

variable vxhist050 atom d_vxhist050
compute vxhistav050 bulk reduce ave v_vxhist050
variable cvcfhist050 equal c_vxhistav050/${up}+1.0
variable cvcfhist050 equal c_vxhistav050/22.4+1.0

variable vxhist060 atom d_vxhist060
compute vxhistav060 bulk reduce ave v_vxhist060
variable cvcfhist060 equal c_vxhistav060/${up}+1.0
variable cvcfhist060 equal c_vxhistav060/22.4+1.0

variable vxhist070 atom d_vxhist070
compute vxhistav070 bulk reduce ave v_vxhist070
variable cvcfhist070 equal c_vxhistav070/${up}+1.0
variable cvcfhist070 equal c_vxhistav070/22.4+1.0

variable vxhist080 atom d_vxhist080
compute vxhistav080 bulk reduce ave v_vxhist080
variable cvcfhist080 equal c_vxhistav080/${up}+1.0
variable cvcfhist080 equal c_vxhistav080/22.4+1.0

variable vxhist090 atom d_vxhist090
compute vxhistav090 bulk reduce ave v_vxhist090
variable cvcfhist090 equal c_vxhistav090/${up}+1.0
variable cvcfhist090 equal c_vxhistav090/22.4+1.0

variable vxhist100 atom d_vxhist100
compute vxhistav100 bulk reduce ave v_vxhist100
variable cvcfhist100 equal c_vxhistav100/${up}+1.0
variable cvcfhist100 equal c_vxhistav100/22.4+1.0

variable vxhist110 atom d_vxhist110
compute vxhistav110 bulk reduce ave v_vxhist110
variable cvcfhist110 equal c_vxhistav110/${up}+1.0
variable cvcfhist110 equal c_vxhistav110/22.4+1.0

variable vxhist120 atom d_vxhist120
compute vxhistav120 bulk reduce ave v_vxhist120
variable cvcfhist120 equal c_vxhistav120/${up}+1.0
variable cvcfhist120 equal c_vxhistav120/22.4+1.0

variable vxhist130 atom d_vxhist130
compute vxhistav130 bulk reduce ave v_vxhist130
variable cvcfhist130 equal c_vxhistav130/${up}+1.0
variable cvcfhist130 equal c_vxhistav130/22.4+1.0

variable vxhist140 atom d_vxhist140
compute vxhistav140 bulk reduce ave v_vxhist140
variable cvcfhist140 equal c_vxhistav140/${up}+1.0
variable cvcfhist140 equal c_vxhistav140/22.4+1.0

variable vxhist150 atom d_vxhist150
compute vxhistav150 bulk reduce ave v_vxhist150
variable cvcfhist150 equal c_vxhistav150/${up}+1.0
variable cvcfhist150 equal c_vxhistav150/22.4+1.0

variable vxhist160 atom d_vxhist160
compute vxhistav160 bulk reduce ave v_vxhist160
variable cvcfhist160 equal c_vxhistav160/${up}+1.0
variable cvcfhist160 equal c_vxhistav160/22.4+1.0

variable vxhist170 atom d_vxhist170
compute vxhistav170 bulk reduce ave v_vxhist170
variable cvcfhist170 equal c_vxhistav170/${up}+1.0
variable cvcfhist170 equal c_vxhistav170/22.4+1.0

variable vxhist180 atom d_vxhist180
compute vxhistav180 bulk reduce ave v_vxhist180
variable cvcfhist180 equal c_vxhistav180/${up}+1.0
variable cvcfhist180 equal c_vxhistav180/22.4+1.0

variable vxhist190 atom d_vxhist190
compute vxhistav190 bulk reduce ave v_vxhist190
variable cvcfhist190 equal c_vxhistav190/${up}+1.0
variable cvcfhist190 equal c_vxhistav190/22.4+1.0

variable vxhist200 atom d_vxhist200
compute vxhistav200 bulk reduce ave v_vxhist200
variable cvcfhist200 equal c_vxhistav200/${up}+1.0
variable cvcfhist200 equal c_vxhistav200/22.4+1.0

run 0
Generated 0 of 0 mixed pair_coeff terms from geometric mixing rule
Per MPI rank memory allocation (min/avg/max) = 30.45 | 30.47 | 30.49 Mbytes
   Step          Temp          PotEng        Density         TotEng         Press         v_xshock       v_ushock   
      3100   128.22984      56.601377      0.70710678     248.88202      291.07308      34.613479      49.410826    
Loop time of 1.7985e-06 on 4 procs for 0 steps with 3000 atoms

83.4% CPU use with 4 MPI tasks x 1 OpenMP threads

MPI task timing breakdown:
Section |  min time  |  avg time  |  max time  |%varavg| %total
---------------------------------------------------------------
Pair    | 0          | 0          | 0          |   0.0 |  0.00
Neigh   | 0          | 0          | 0          |   0.0 |  0.00
Comm    | 0          | 0          | 0          |   0.0 |  0.00
Output  | 0          | 0          | 0          |   0.0 |  0.00
Modify  | 0          | 0          | 0          |   0.0 |  0.00
Other   |            | 1.798e-06  |            |       |100.00

Nlocal:            750 ave        1479 max           3 min
Histogram: 1 0 1 0 0 0 0 1 0 1
Nghost:           1207 ave        2093 max          10 min
Histogram: 1 0 0 1 0 0 0 0 0 2
Neighs:        15004.5 ave       34619 max           1 min
Histogram: 2 0 0 0 0 0 1 0 0 1

Total # of neighbors = 60018
Ave neighs/atom = 20.006
Neighbor list builds = 0
Dangerous builds not checked

print """# t CVCF(t)
$((010-v_leftwindow)*v_nevery*v_dt) ${cvcfhist010}
$((020-v_leftwindow)*v_nevery*v_dt) ${cvcfhist020}
$((030-v_leftwindow)*v_nevery*v_dt) ${cvcfhist030}
$((040-v_leftwindow)*v_nevery*v_dt) ${cvcfhist040}
$((050-v_leftwindow)*v_nevery*v_dt) ${cvcfhist050}
$((060-v_leftwindow)*v_nevery*v_dt) ${cvcfhist060}
$((070-v_leftwindow)*v_nevery*v_dt) ${cvcfhist070}
$((080-v_leftwindow)*v_nevery*v_dt) ${cvcfhist080}
$((090-v_leftwindow)*v_nevery*v_dt) ${cvcfhist090}
$((100-v_leftwindow)*v_nevery*v_dt) ${cvcfhist100}
$((110-v_leftwindow)*v_nevery*v_dt) ${cvcfhist110}
$((120-v_leftwindow)*v_nevery*v_dt) ${cvcfhist120}
$((130-v_leftwindow)*v_nevery*v_dt) ${cvcfhist130}
$((140-v_leftwindow)*v_nevery*v_dt) ${cvcfhist140}
$((150-v_leftwindow)*v_nevery*v_dt) ${cvcfhist150}
$((160-v_leftwindow)*v_nevery*v_dt) ${cvcfhist160}
$((170-v_leftwindow)*v_nevery*v_dt) ${cvcfhist170}
$((180-v_leftwindow)*v_nevery*v_dt) ${cvcfhist180}
$((190-v_leftwindow)*v_nevery*v_dt) ${cvcfhist190}
$((200-v_leftwindow)*v_nevery*v_dt) ${cvcfhist200}""" file cvcf.dat screen no
Total wall time: 0:00:07
