LAMMPS (2 Apr 2025)
# LAMMPS input file in real units via oxdna lj2real.py, date 2024-05-19
variable number	equal 2
variable ofreq	equal 1000
variable efreq	equal 1000
variable T      equal 300.0
variable rhos   equal 0.5

units real

dimension 3

newton on

boundary  p p p

atom_style hybrid bond ellipsoid oxdna
WARNING: Atom style hybrid defines both, per-type and per-atom masses; both must be set, but only per-atom masses will be used (../atom_vec_hybrid.cpp:132)
atom_modify sort 0 8.518

# Pair interactions require lists of neighbours to be calculated
neighbor 17.036 bin
neigh_modify every 1 delay 0 check yes

read_data data.duplex2
Reading data file ...
  orthogonal box = (-170 -170 -170) to (170 170 170)
  1 by 2 by 2 MPI processor grid
  reading atoms ...
  16 atoms
  reading velocities ...
  16 velocities
  scanning bonds ...
  1 = max bonds/atom
  16 ellipsoids
  orthogonal box = (-170 -170 -170) to (170 170 170)
  1 by 2 by 2 MPI processor grid
  reading bonds ...
  13 bonds
Finding 1-2 1-3 1-4 neighbors ...
  special bond factors lj:    0        0        0       
  special bond factors coul:  0        0        0       
     2 = max # of 1-2 neighbors
     2 = max # of 1-3 neighbors
     4 = max # of 1-4 neighbors
     6 = max # of special neighbors
  special bonds CPU = 0.001 seconds
  read_data CPU = 0.003 seconds

set atom * mass 315.8376
Setting atom values ...
  16 settings made for mass

group all type 1 4
16 atoms in group all

# oxRNA2 bond interactions - FENE backbone
bond_style oxrna2/fene
bond_coeff * 11.92337812042065 2.1295 6.482800913
special_bonds lj 0 1 1
Finding 1-2 1-3 1-4 neighbors ...
  special bond factors lj:    0        1        1       
  special bond factors coul:  0        0        0       
     2 = max # of 1-2 neighbors
     2 = max # of 1-3 neighbors
     4 = max # of 1-4 neighbors
     6 = max # of special neighbors
  special bonds CPU = 0.000 seconds

# oxRNA2 pair interactions
pair_style hybrid/overlay oxrna2/excv oxrna2/stk oxrna2/hbond oxrna2/xstk oxrna2/coaxstk oxrna2/dh
pair_coeff * * oxrna2/excv 11.92337812042065 5.9626 5.74965 11.92337812042065 4.38677 4.259 11.92337812042065 2.81094 2.72576
pair_coeff * * oxrna2/stk seqdep ${T} 8.35864576375849 0.005504556 0.70439070204273 3.66274 7.92174 2.9813 6.64404 0.9 0.0 0.95 0.9 0.0 0.95 1.3 0.0 0.8 1.3 0.0 0.8 2.0 0.65 2.0 0.65
pair_coeff * * oxrna2/stk seqdep 300 8.35864576375849 0.005504556 0.70439070204273 3.66274 7.92174 2.9813 6.64404 0.9 0.0 0.95 0.9 0.0 0.95 1.3 0.0 0.8 1.3 0.0 0.8 2.0 0.65 2.0 0.65
pair_coeff * * oxrna2/hbond seqdep 0.0 0.93918760272364 3.4072 6.3885 2.89612 5.9626 1.5 0.0 0.7 1.5 0.0 0.7 1.5 0.0 0.7 0.46 3.141592653589793 0.7 4.0 1.5707963267948966 0.45 4.0 1.5707963267948966 0.45
pair_coeff 1 4 oxrna2/hbond seqdep 5.18928666388042 0.93918760272364 3.4072 6.3885 2.89612 5.9626 1.5 0.0 0.7 1.5 0.0 0.7 1.5 0.0 0.7 0.46 3.141592653589793 0.7 4.0 1.5707963267948966 0.45 4.0 1.5707963267948966 0.45
pair_coeff 2 3 oxrna2/hbond seqdep 5.18928666388042 0.93918760272364 3.4072 6.3885 2.89612 5.9626 1.5 0.0 0.7 1.5 0.0 0.7 1.5 0.0 0.7 0.46 3.141592653589793 0.7 4.0 1.5707963267948966 0.45 4.0 1.5707963267948966 0.45
pair_coeff 3 4 oxrna2/hbond seqdep 5.18928666388042 0.93918760272364 3.4072 6.3885 2.89612 5.9626 1.5 0.0 0.7 1.5 0.0 0.7 1.5 0.0 0.7 0.46 3.141592653589793 0.7 4.0 1.5707963267948966 0.45 4.0 1.5707963267948966 0.45
pair_coeff * * oxrna2/xstk 4.92690859644113 4.259 5.1108 3.57756 4.94044 2.25 0.505 0.58 1.7 1.266 0.68 1.7 1.266 0.68 1.7 0.309 0.68 1.7 0.309 0.68
pair_coeff * * oxrna2/coaxstk 6.57330882442206 4.259 5.1108 3.57756 4.94044 2.0 2.592 0.65 1.3 0.151 0.8 0.9 0.685 0.95 0.9 0.685 0.95 2.0 -0.65 2.0 -0.65
pair_coeff * * oxrna2/dh ${T} ${rhos} 1.02455
pair_coeff * * oxrna2/dh 300 ${rhos} 1.02455
pair_coeff * * oxrna2/dh 300 0.5 1.02455

# NVE ensemble
fix 1 all nve/asphere
#fix 2 all langevin ${T} ${T} 4265.0 457145 angmom 10

timestep 0.01706

#comm_style tiled
fix 3 all balance 1000 1.03 shift xyz 10 1.03
comm_modify cutoff 32.4

compute quat all property/atom quatw quati quatj quatk

compute erot all erotate/asphere
compute ekin all ke
compute epot all pe
variable erot equal c_erot
variable ekin equal c_ekin
variable epot equal c_epot
variable etot equal c_erot+c_ekin+c_epot
fix 5 all print ${efreq} "$(step)  ekin = ${ekin} |  erot = ${erot} | epot = ${epot} | etot = ${etot}" screen yes
fix 5 all print 1000 "$(step)  ekin = ${ekin} |  erot = ${erot} | epot = ${epot} | etot = ${etot}" screen yes

dump out all custom ${ofreq} out.${number}.lammpstrj id mol type x y z ix iy iz vx vy vz c_quat[1] c_quat[2] c_quat[3] c_quat[4] angmomx angmomy angmomz
dump out all custom 1000 out.${number}.lammpstrj id mol type x y z ix iy iz vx vy vz c_quat[1] c_quat[2] c_quat[3] c_quat[4] angmomx angmomy angmomz
dump out all custom 1000 out.2.lammpstrj id mol type x y z ix iy iz vx vy vz c_quat[1] c_quat[2] c_quat[3] c_quat[4] angmomx angmomy angmomz
dump_modify out sort id
dump_modify out format line "%d %d %d  %22.15le %22.15le %22.15le  %d %d %d  %22.15le %22.15le %22.15le  %22.15le %22.15le %22.15le %22.15le  %22.15le %22.15le %22.15le"

run 1000000
Generated 0 of 6 mixed pair_coeff terms from geometric mixing rule
Neighbor list info ...
  update: every = 1 steps, delay = 0 steps, check = yes
  max neighbors/atom: 2000, page size: 100000
  master list distance cutoff = 36.640032
  ghost atom cutoff = 36.640032
  binsize = 18.320016, bins = 19 19 19
  5 neighbor lists, perpetual/occasional/extra = 5 0 0
  (1) pair oxrna2/excv, perpetual
      attributes: half, newton on
      pair build: half/bin/newton
      stencil: half/bin/3d
      bin: standard
  (2) pair oxrna2/hbond, perpetual, copy from (1)
      attributes: half, newton on
      pair build: copy
      stencil: none
      bin: none
  (3) pair oxrna2/xstk, perpetual, copy from (1)
      attributes: half, newton on
      pair build: copy
      stencil: none
      bin: none
  (4) pair oxrna2/coaxstk, perpetual, copy from (1)
      attributes: half, newton on
      pair build: copy
      stencil: none
      bin: none
  (5) pair oxrna2/dh, perpetual, copy from (1)
      attributes: half, newton on
      pair build: copy
      stencil: none
      bin: none
WARNING: Communication cutoff adjusted to 36.640032409886274 (../comm.cpp:753)
0  ekin = 16.1203242878408 |  erot = 16.6982509426318 | epot = -66.3830249260541 | etot = -33.5644496955815
Per MPI rank memory allocation (min/avg/max) = 7.639 | 7.668 | 7.753 Mbytes
   Step          Temp          E_pair         E_mol          TotEng         Press          Volume    
         0   360.53565     -69.627742      3.2447172     -50.262701      0.034084814    39304000     
1000  ekin = 16.3558183649387 |  erot = 16.6323090455317 | epot = -66.5525771041999 | etot = -33.5644496937295
2000  ekin = 16.6191649168147 |  erot = 16.5684372137643 | epot = -66.7520518221219 | etot = -33.5644496915429
3000  ekin = 16.9230904408654 |  erot = 16.5204480451832 | epot = -67.0079881759691 | etot = -33.5644496899204
4000  ekin = 17.2772162612591 |  erot = 16.49867929322 | epot = -67.3403452437716 | etot = -33.5644496892924
5000  ekin = 17.6866959075726 |  erot = 16.5050138456572 | epot = -67.7561594428205 | etot = -33.5644496895906
6000  ekin = 18.1531343302964 |  erot = 16.5325161302815 | epot = -68.2501001506509 | etot = -33.564449690073
7000  ekin = 18.680653493314 |  erot = 16.5738535187235 | epot = -68.8189567014342 | etot = -33.5644496893968
8000  ekin = 19.2766528199695 |  erot = 16.6261515879628 | epot = -69.4672540969553 | etot = -33.564449689023
9000  ekin = 19.9461490397319 |  erot = 16.6908475985738 | epot = -70.2014463262311 | etot = -33.5644496879254
10000  ekin = 20.6973181248474 |  erot = 16.7772960438528 | epot = -71.0390638548539 | etot = -33.5644496861537
11000  ekin = 21.539522624792 |  erot = 16.9014209971989 | epot = -72.0053933083052 | etot = -33.5644496863143
12000  ekin = 22.4717498465051 |  erot = 17.0791755563662 | epot = -73.1153750880492 | etot = -33.5644496851779
13000  ekin = 23.493621609947 |  erot = 17.3228520870333 | epot = -74.3809233816827 | etot = -33.5644496847024
14000  ekin = 24.6044210071247 |  erot = 17.6425688028838 | epot = -75.8114394947876 | etot = -33.5644496847791
15000  ekin = 25.7999389267746 |  erot = 18.0453525578634 | epot = -77.409741169488 | etot = -33.56444968485
16000  ekin = 27.0739775537124 |  erot = 18.5361142332913 | epot = -79.1745414730758 | etot = -33.5644496860721
17000  ekin = 28.4119581304119 |  erot = 19.1137262760961 | epot = -81.090134094963 | etot = -33.5644496884551
18000  ekin = 29.7909545183304 |  erot = 19.7704759932757 | epot = -83.1258802031781 | etot = -33.564449691572
19000  ekin = 31.1831510307734 |  erot = 20.4915974540497 | epot = -85.23919818056 | etot = -33.5644496957369
20000  ekin = 32.5560965367945 |  erot = 21.2528351748736 | epot = -87.3733814125721 | etot = -33.564449700904
21000  ekin = 33.8683309875662 |  erot = 22.0156446407479 | epot = -89.448425337945 | etot = -33.5644497096309
22000  ekin = 35.0747510230859 |  erot = 22.7306302808714 | epot = -91.3698310187506 | etot = -33.5644497147933
23000  ekin = 36.1427935644228 |  erot = 23.3543658008637 | epot = -93.061609084542 | etot = -33.5644497192554
24000  ekin = 37.0484240543212 |  erot = 23.8536351256841 | epot = -94.4665089004158 | etot = -33.5644497204104
25000  ekin = 37.7873483857428 |  erot = 24.2156130941779 | epot = -95.5674111990491 | etot = -33.5644497191284
26000  ekin = 38.3695951222901 |  erot = 24.4472028227107 | epot = -96.381247661283 | etot = -33.5644497162822
27000  ekin = 38.8142451991148 |  erot = 24.5696496438676 | epot = -96.948344555808 | etot = -33.5644497128256
28000  ekin = 39.1436511594785 |  erot = 24.6108705414906 | epot = -97.318971410458 | etot = -33.5644497094888
29000  ekin = 39.3799077053096 |  erot = 24.5987493007979 | epot = -97.5431067127116 | etot = -33.564449706604
30000  ekin = 39.5437187767934 |  erot = 24.5572061990979 | epot = -97.6653746802842 | etot = -33.5644497043929
31000  ekin = 39.6556538792233 |  erot = 24.5025482878247 | epot = -97.7226518696584 | etot = -33.5644497026104
32000  ekin = 39.7376908979154 |  erot = 24.4447365565288 | epot = -97.7468771552205 | etot = -33.5644497007763
33000  ekin = 39.817841043605 |  erot = 24.3917276701333 | epot = -97.7740184125893 | etot = -33.564449698851
34000  ekin = 39.9276187144893 |  erot = 24.3494773308409 | epot = -97.8415457422144 | etot = -33.5644496968841
35000  ekin = 40.0972017271451 |  erot = 24.3220925820224 | epot = -97.9837440042527 | etot = -33.5644496950852
36000  ekin = 40.3554758289783 |  erot = 24.312113286135 | epot = -98.2320388089543 | etot = -33.564449693841
37000  ekin = 40.7253172241849 |  erot = 24.319453116459 | epot = -98.6092200342511 | etot = -33.5644496936073
38000  ekin = 41.2184614577325 |  erot = 24.3399425110988 | epot = -99.1228536635575 | etot = -33.5644496947262
39000  ekin = 41.8315835745715 |  erot = 24.364262137939 | epot = -99.7602954097929 | etot = -33.5644496972824
40000  ekin = 42.5444333388249 |  erot = 24.377790609618 | epot = -100.486673649662 | etot = -33.5644497012187
41000  ekin = 43.3221534386104 |  erot = 24.3619359806969 | epot = -101.248539124814 | etot = -33.5644497055067
42000  ekin = 44.1232219530959 |  erot = 24.2968159626986 | epot = -101.984487625363 | etot = -33.5644497095685
43000  ekin = 44.9043008441325 |  erot = 24.1647850477406 | epot = -102.633535604779 | etot = -33.5644497129058
44000  ekin = 45.6258073685738 |  erot = 23.9537754776321 | epot = -103.144032561024 | etot = -33.5644497148177
45000  ekin = 46.2557013508699 |  erot = 23.6596129163769 | epot = -103.479763983877 | etot = -33.5644497166301
46000  ekin = 46.7711396854542 |  erot = 23.2746461161493 | epot = -103.610235519164 | etot = -33.5644497175603
47000  ekin = 47.1576706465396 |  erot = 22.7983985986725 | epot = -103.520518961432 | etot = -33.5644497162201
48000  ekin = 47.4067411848209 |  erot = 22.2418927069081 | epot = -103.213083606725 | etot = -33.5644497149959
49000  ekin = 47.5134307536655 |  erot = 21.621260837191 | epot = -102.69914130377 | etot = -33.5644497129138
50000  ekin = 47.4750496002015 |  erot = 20.9637753825394 | epot = -102.0032746914 | etot = -33.564449708659
51000  ekin = 47.2893433305641 |  erot = 20.3140174296315 | epot = -101.167810469158 | etot = -33.564449708962
52000  ekin = 46.9527474071888 |  erot = 19.6808685522285 | epot = -100.198065668176 | etot = -33.5644497087591
53000  ekin = 46.4669221029443 |  erot = 19.0628634962113 | epot = -99.0942353064234 | etot = -33.5644497072678
54000  ekin = 45.8347987943738 |  erot = 18.4752794596817 | epot = -97.8745279599034 | etot = -33.5644497058479
55000  ekin = 45.0590316628637 |  erot = 17.9341671577866 | epot = -96.5576485255759 | etot = -33.5644497049256
56000  ekin = 44.1409291390461 |  erot = 17.4520797326565 | epot = -95.1574585762239 | etot = -33.5644497045213
57000  ekin = 43.0792908324223 |  erot = 17.0373342694516 | epot = -93.6810748066118 | etot = -33.5644497047379
58000  ekin = 41.870492354061 |  erot = 16.6939394056071 | epot = -92.1288814650815 | etot = -33.5644497054135
59000  ekin = 40.5509408803237 |  erot = 16.4316140927958 | epot = -90.5470046657488 | etot = -33.5644496926293
60000  ekin = 39.1975830612677 |  erot = 16.2583411314114 | epot = -89.0203738856268 | etot = -33.5644496929477
61000  ekin = 35.7114984384215 |  erot = 15.7928074869523 | epot = -85.0687559055418 | etot = -33.564449980168
62000  ekin = 34.7372517507043 |  erot = 15.8094409096046 | epot = -84.1111427028053 | etot = -33.5644500424963
63000  ekin = 35.8178089566991 |  erot = 16.165349251193 | epot = -85.5476088513056 | etot = -33.5644506434135
64000  ekin = 34.8692363703953 |  erot = 16.1670101597174 | epot = -84.6006971860836 | etot = -33.5644506559709
65000  ekin = 33.8464494555443 |  erot = 16.140263218965 | epot = -83.5511633293448 | etot = -33.5644506548355
66000  ekin = 32.7636419796969 |  erot = 16.0751240440803 | epot = -82.4032166770495 | etot = -33.5644506532723
67000  ekin = 31.6420680628887 |  erot = 15.9705642956727 | epot = -81.1770830093342 | etot = -33.5644506507728
68000  ekin = 30.5061166759963 |  erot = 15.8342590047106 | epot = -79.9048263284338 | etot = -33.5644506477269
69000  ekin = 29.3793899831135 |  erot = 15.6784092891741 | epot = -78.6222499180447 | etot = -33.5644506457571
70000  ekin = 28.2842777970634 |  erot = 15.5192251789786 | epot = -77.3679536187073 | etot = -33.5644506426654
71000  ekin = 27.2428007223134 |  erot = 15.3775924468384 | epot = -76.1848438089711 | etot = -33.5644506398193
72000  ekin = 26.2738583640492 |  erot = 15.2738682128136 | epot = -75.112177214298 | etot = -33.5644506374352
73000  ekin = 25.3929266243341 |  erot = 15.2252389252995 | epot = -74.1826161852611 | etot = -33.5644506356275
74000  ekin = 24.6118800235914 |  erot = 15.2440811522982 | epot = -73.4204118109385 | etot = -33.5644506350489
75000  ekin = 23.9285421197381 |  erot = 15.2937064902884 | epot = -72.7866996078906 | etot = -33.5644509978641
76000  ekin = 23.6014258497322 |  erot = 14.5530249139114 | epot = -71.7189013877733 | etot = -33.5644506241297
77000  ekin = 24.0021186681974 |  erot = 14.6672556253505 | epot = -72.2338249120008 | etot = -33.5644506184528
78000  ekin = 23.7667117018451 |  erot = 14.8821032755398 | epot = -72.2132655967962 | etot = -33.5644506194113
79000  ekin = 23.6362408803435 |  erot = 15.1573231058568 | epot = -72.3580146069972 | etot = -33.5644506207969
80000  ekin = 23.6008292998165 |  erot = 15.4801164769252 | epot = -72.6453963992513 | etot = -33.5644506225095
81000  ekin = 23.6479278988496 |  erot = 15.8366782045247 | epot = -73.0490567276819 | etot = -33.5644506243076
82000  ekin = 23.7631958527425 |  erot = 16.2135577483216 | epot = -73.5412042271379 | etot = -33.5644506260738
83000  ekin = 23.9313380513087 |  erot = 16.5989137528052 | epot = -74.0947024318293 | etot = -33.5644506277154
84000  ekin = 24.1405337461484 |  erot = 16.983273988924 | epot = -74.6882583637913 | etot = -33.5644506287188
85000  ekin = 24.3851366362453 |  erot = 17.3594190811819 | epot = -75.3090063475379 | etot = -33.5644506301106
86000  ekin = 24.6499622429171 |  erot = 17.7229731863066 | epot = -75.9373860604665 | etot = -33.5644506312428
87000  ekin = 24.9195866966156 |  erot = 18.0734917202564 | epot = -76.5575290489266 | etot = -33.5644506320546
88000  ekin = 25.1793742014113 |  erot = 18.4146339772116 | epot = -77.1584588111712 | etot = -33.5644506325484
89000  ekin = 25.4156568494614 |  erot = 18.7539686693878 | epot = -77.7340761514964 | etot = -33.5644506326472
90000  ekin = 25.6096840035648 |  erot = 19.1040901404649 | epot = -78.2782247770943 | etot = -33.5644506330646
91000  ekin = 25.734841796977 |  erot = 19.486501046222 | epot = -78.7857934757878 | etot = -33.5644506325888
92000  ekin = 25.7824117490201 |  erot = 19.9168308436415 | epot = -79.2636932257679 | etot = -33.5644506331063
93000  ekin = 25.7436484203069 |  erot = 20.4015276208882 | epot = -79.7096266744409 | etot = -33.5644506332458
94000  ekin = 25.6107487399087 |  erot = 20.9498819611178 | epot = -80.1250813342019 | etot = -33.5644506331754
95000  ekin = 25.3788454256116 |  erot = 21.571881114691 | epot = -80.5151771730736 | etot = -33.564450632771
96000  ekin = 25.0476635684674 |  erot = 22.2778886106668 | epot = -80.8900028110617 | etot = -33.5644506319275
97000  ekin = 24.6228037012573 |  erot = 23.0785820232878 | epot = -81.2658363557797 | etot = -33.5644506312346
98000  ekin = 24.1163650303307 |  erot = 23.9802624556902 | epot = -81.6610781157326 | etot = -33.5644506297118
99000  ekin = 23.5467601995474 |  erot = 24.9897227937637 | epot = -82.1009336213189 | etot = -33.5644506280078
100000  ekin = 22.9377076830214 |  erot = 26.1125444287822 | epot = -82.6147027382351 | etot = -33.5644506264314
101000  ekin = 22.3162402354091 |  erot = 27.3495277986658 | epot = -83.2302186594429 | etot = -33.564450625368
102000  ekin = 21.7099673799524 |  erot = 28.694128988719 | epot = -83.9685469938619 | etot = -33.5644506251905
103000  ekin = 21.1440927333109 |  erot = 30.130413105181 | epot = -84.8389564645868 | etot = -33.5644506260949
104000  ekin = 20.6390360732637 |  erot = 31.6318076720524 | epot = -85.8352943737253 | etot = -33.5644506284091
105000  ekin = 20.209735617799 |  erot = 33.1559511277799 | epot = -86.9301373769419 | etot = -33.564450631363
106000  ekin = 19.8659962936201 |  erot = 34.6591523175006 | epot = -88.0895992442005 | etot = -33.5644506330798
107000  ekin = 19.6196926152637 |  erot = 36.1003389899177 | epot = -89.2844822415494 | etot = -33.564450636368
108000  ekin = 19.473776477043 |  erot = 37.4404659122942 | epot = -90.478693028777 | etot = -33.5644506394399
109000  ekin = 19.4257211237992 |  erot = 38.6395727467498 | epot = -91.6297445157466 | etot = -33.5644506451976
110000  ekin = 19.4643317381193 |  erot = 39.6495422786704 | epot = -92.6783246653676 | etot = -33.5644506485779
111000  ekin = 19.5812097010475 |  erot = 40.4340503208586 | epot = -93.5797106732499 | etot = -33.5644506513439
112000  ekin = 19.7688752467928 |  erot = 40.9641614007927 | epot = -94.2974873012359 | etot = -33.5644506536504
113000  ekin = 20.0199352606449 |  erot = 41.2235617686307 | epot = -94.8079476827585 | etot = -33.5644506534828
114000  ekin = 20.3316783135465 |  erot = 41.2208106095003 | epot = -95.1169395739096 | etot = -33.5644506508629
115000  ekin = 20.709293485982 |  erot = 40.9902193450308 | epot = -95.2639634785925 | etot = -33.5644506475796
116000  ekin = 21.1584070130065 |  erot = 40.5711692188872 | epot = -95.2940268780945 | etot = -33.5644506462008
117000  ekin = 21.6717401642295 |  erot = 40.0068194492195 | epot = -95.2430102574654 | etot = -33.5644506440164
118000  ekin = 22.2304498749696 |  erot = 39.3449170916989 | epot = -95.139817608727 | etot = -33.5644506420585
119000  ekin = 22.8040322747532 |  erot = 38.6279078104784 | epot = -94.9963907285501 | etot = -33.5644506433184
120000  ekin = 23.3636455910809 |  erot = 37.873316341936 | epot = -94.8014125775809 | etot = -33.564450644564
121000  ekin = 23.8883342479592 |  erot = 37.0853024873747 | epot = -94.5380873807857 | etot = -33.5644506454519
122000  ekin = 24.3628295450758 |  erot = 36.2617521254178 | epot = -94.1890323184796 | etot = -33.564450647986
123000  ekin = 24.7728939423004 |  erot = 35.3896441641824 | epot = -93.7269887541675 | etot = -33.5644506476847
124000  ekin = 25.1206142173532 |  erot = 34.4655545655715 | epot = -93.1506194284861 | etot = -33.5644506455614
125000  ekin = 25.4216604350123 |  erot = 33.5035163209405 | epot = -92.4896273979289 | etot = -33.5644506419761
126000  ekin = 25.6927735129513 |  erot = 32.5281184075591 | epot = -91.7853425611147 | etot = -33.5644506406044
127000  ekin = 25.9460883081184 |  erot = 31.5650113724896 | epot = -91.075550318169 | etot = -33.564450637561
128000  ekin = 26.1993872383143 |  erot = 30.6366650539286 | epot = -90.4005029275339 | etot = -33.5644506352909
129000  ekin = 26.4652741313021 |  erot = 29.7610339508727 | epot = -89.790758715099 | etot = -33.5644506329241
130000  ekin = 26.7486727551179 |  erot = 28.9506137583657 | epot = -89.2637371464449 | etot = -33.5644506329613
131000  ekin = 27.0469092029007 |  erot = 28.2034442942535 | epot = -88.8148041302816 | etot = -33.5644506331274
132000  ekin = 27.3542874865272 |  erot = 27.516081388701 | epot = -88.4348195084665 | etot = -33.5644506332383
133000  ekin = 27.6627378161371 |  erot = 26.8888107912318 | epot = -88.1159992405642 | etot = -33.5644506331952
134000  ekin = 27.9672923181905 |  erot = 26.3214524159659 | epot = -87.8531953671503 | etot = -33.5644506329938
135000  ekin = 28.2641150379019 |  erot = 25.8141340320147 | epot = -87.6426997025916 | etot = -33.564450632675
136000  ekin = 28.550997814132 |  erot = 25.3673179322167 | epot = -87.4827663786118 | etot = -33.5644506322631
137000  ekin = 28.8259159092139 |  erot = 24.9801644637703 | epot = -87.3705310053087 | etot = -33.5644506323246
138000  ekin = 29.0842610649265 |  erot = 24.6492546074009 | epot = -87.2979663044102 | etot = -33.5644506320828
139000  ekin = 29.3272222877183 |  erot = 24.3700782380152 | epot = -87.2617511574287 | etot = -33.5644506316951
140000  ekin = 29.5579798491441 |  erot = 24.1376580585878 | epot = -87.2600885391637 | etot = -33.5644506314319
141000  ekin = 29.7799846346174 |  erot = 23.9462429930677 | epot = -87.2906782589345 | etot = -33.5644506312494
142000  ekin = 29.9959841884843 |  erot = 23.7899704636142 | epot = -87.3504052833018 | etot = -33.5644506312033
143000  ekin = 30.2070349127716 |  erot = 23.6632996950764 | epot = -87.4347852391673 | etot = -33.5644506313193
144000  ekin = 30.4118840029031 |  erot = 23.5613798569466 | epot = -87.537714491439 | etot = -33.5644506315893
145000  ekin = 30.6068456872225 |  erot = 23.4803656669197 | epot = -87.6516619861203 | etot = -33.5644506319781
146000  ekin = 30.7861230778159 |  erot = 23.4176420010851 | epot = -87.7682157113368 | etot = -33.5644506324358
147000  ekin = 30.9424364770348 |  erot = 23.371936639436 | epot = -87.8788237493794 | etot = -33.5644506329087
148000  ekin = 31.0677916134884 |  erot = 23.3433216080264 | epot = -87.9755638548614 | etot = -33.5644506333465
149000  ekin = 31.1542520331522 |  erot = 23.333125453725 | epot = -88.0518281205845 | etot = -33.5644506337072
150000  ekin = 31.1946418128171 |  erot = 23.3437996409629 | epot = -88.1028920877366 | etot = -33.5644506339566
151000  ekin = 31.1838063839326 |  erot = 23.3785936220284 | epot = -88.1268506398001 | etot = -33.5644506338391
152000  ekin = 31.1202290278313 |  erot = 23.4412183836812 | epot = -88.1258980452503 | etot = -33.5644506337377
153000  ekin = 31.003255321766 |  erot = 23.537218978911 | epot = -88.1049249338514 | etot = -33.5644506331744
154000  ekin = 30.8354559406778 |  erot = 23.6729952127041 | epot = -88.0729017863002 | etot = -33.5644506329183
155000  ekin = 30.6186135870566 |  erot = 23.8551009557733 | epot = -88.0381651751745 | etot = -33.5644506323445
156000  ekin = 30.3571457582636 |  erot = 24.091472110382 | epot = -88.0130685002331 | etot = -33.5644506315876
157000  ekin = 30.05741085004 |  erot = 24.3907046676125 | epot = -88.0125661484851 | etot = -33.5644506308327
158000  ekin = 29.7256756923368 |  erot = 24.7625567196408 | epot = -88.0526830421805 | etot = -33.5644506302028
159000  ekin = 29.3667041507954 |  erot = 25.2124449846263 | epot = -88.1435997656329 | etot = -33.5644506302112
160000  ekin = 28.9829375848298 |  erot = 25.7406189361297 | epot = -88.2880071520123 | etot = -33.5644506310528
161000  ekin = 28.5708031098667 |  erot = 26.3449808633602 | epot = -88.4802346049514 | etot = -33.5644506317244
162000  ekin = 28.1278607476097 |  erot = 27.0188065006261 | epot = -88.7111178809878 | etot = -33.564450632752
163000  ekin = 27.6515523776464 |  erot = 27.7508923428497 | epot = -88.9668953542096 | etot = -33.5644506337136
164000  ekin = 27.139816657545 |  erot = 28.5265897115536 | epot = -89.2308570046136 | etot = -33.564450635515
165000  ekin = 26.5901801294102 |  erot = 29.3236809534498 | epot = -89.4783117201255 | etot = -33.5644506372655
166000  ekin = 26.0027550423944 |  erot = 30.1148491025888 | epot = -89.6820547838242 | etot = -33.564450638841
167000  ekin = 25.3815734826362 |  erot = 30.8714146428692 | epot = -89.8174387656299 | etot = -33.5644506401245
168000  ekin = 24.7338280126155 |  erot = 31.5656853660188 | epot = -89.8639640196426 | etot = -33.5644506410083
169000  ekin = 24.0691061638241 |  erot = 32.1733410341233 | epot = -89.8068978394028 | etot = -33.5644506414554
170000  ekin = 23.3986380903792 |  erot = 32.6761770397921 | epot = -89.6392657713571 | etot = -33.5644506411859
171000  ekin = 22.7350947047522 |  erot = 33.0649339609233 | epot = -89.3644793058718 | etot = -33.5644506401964
172000  ekin = 22.0927595064301 |  erot = 33.3397459263045 | epot = -88.9969560711755 | etot = -33.5644506384409
173000  ekin = 21.4881436133096 |  erot = 33.5098602953131 | epot = -88.5624545444127 | etot = -33.56445063579
174000  ekin = 20.9424106184003 |  erot = 33.595063898139 | epot = -88.1019251458103 | etot = -33.564450629271
175000  ekin = 20.4887725385168 |  erot = 33.6332952588448 | epot = -87.6865184248627 | etot = -33.564450627501
176000  ekin = 20.1459992745563 |  erot = 33.6413286939828 | epot = -87.3517785947038 | etot = -33.5644506261647
177000  ekin = 19.9273952403346 |  erot = 33.6264319072465 | epot = -87.1182777731973 | etot = -33.5644506256162
178000  ekin = 19.8405268115196 |  erot = 33.5862782738568 | epot = -86.9912557124938 | etot = -33.5644506271175
179000  ekin = 19.8828425829323 |  erot = 33.5043404166443 | epot = -86.9516336276316 | etot = -33.564450628055
180000  ekin = 20.0524881206163 |  erot = 33.3671042345422 | epot = -86.9840429848988 | etot = -33.5644506297402
181000  ekin = 20.3414841297256 |  erot = 33.158178200646 | epot = -87.0641129622346 | etot = -33.564450631863
182000  ekin = 20.7352057198153 |  erot = 32.8612622822521 | epot = -87.1609186361321 | etot = -33.5644506340647
183000  ekin = 21.213710622358 |  erot = 32.4647477949405 | epot = -87.2429090531968 | etot = -33.5644506358983
184000  ekin = 21.7537587720608 |  erot = 31.9655803613326 | epot = -87.283789770582 | etot = -33.5644506371886
185000  ekin = 22.3286746031834 |  erot = 31.3708022039155 | epot = -87.2639274447846 | etot = -33.5644506376857
186000  ekin = 22.9115100132842 |  erot = 30.6990331536432 | epot = -87.1749938042462 | etot = -33.5644506373189
187000  ekin = 23.4775030152572 |  erot = 29.9792070479713 | epot = -87.0211606994402 | etot = -33.5644506362117
188000  ekin = 24.0059463479903 |  erot = 29.2469949106339 | epot = -86.8173918933282 | etot = -33.564450634704
189000  ekin = 24.4809955944179 |  erot = 28.539213143665 | epot = -86.5846593713788 | etot = -33.5644506332958
190000  ekin = 24.8911658073078 |  erot = 27.8871249849447 | epot = -86.3427414247859 | etot = -33.5644506325334
191000  ekin = 25.227560941952 |  erot = 27.310125996654 | epot = -86.102137571575 | etot = -33.564450632969
192000  ekin = 25.483101142675 |  erot = 26.8121375634346 | epot = -85.8596893403539 | etot = -33.5644506342442
193000  ekin = 25.2930335715373 |  erot = 26.6410891958036 | epot = -85.4985734034383 | etot = -33.5644506360974
194000  ekin = 25.035260161404 |  erot = 26.6525265483578 | epot = -85.2522373921805 | etot = -33.5644506824188
195000  ekin = 25.0363508840797 |  erot = 26.2378500699629 | epot = -84.8386516236457 | etot = -33.5644506696032
196000  ekin = 24.964894254965 |  erot = 25.7868302418828 | epot = -84.3161751669044 | etot = -33.5644506700566
197000  ekin = 24.8200850732404 |  erot = 25.3002719383861 | epot = -83.6848076806265 | etot = -33.564450669
198000  ekin = 24.61728845885 |  erot = 24.7762496503871 | epot = -82.9579887758276 | etot = -33.5644506665905
199000  ekin = 24.3770483830266 |  erot = 24.2259949153896 | epot = -82.1674939619519 | etot = -33.5644506635357
200000  ekin = 24.1224360020317 |  erot = 23.6691820640947 | epot = -81.3560687261605 | etot = -33.5644506600341
201000  ekin = 23.8775516468491 |  erot = 23.129174398581 | epot = -80.5711767022502 | etot = -33.56445065682
202000  ekin = 23.6646103059768 |  erot = 22.6276096876344 | epot = -79.8566706478913 | etot = -33.5644506542802
203000  ekin = 23.5017139925599 |  erot = 22.1809863327431 | epot = -79.2471509779123 | etot = -33.5644506526094
204000  ekin = 23.4012931943674 |  erot = 21.7992926193422 | epot = -78.7650364652226 | etot = -33.564450651513
205000  ekin = 23.3698442687823 |  erot = 21.488395076595 | epot = -78.4226899967252 | etot = -33.564450651348
206000  ekin = 23.4080277663919 |  erot = 21.2503388252235 | epot = -78.2228172433776 | etot = -33.5644506517623
207000  ekin = 23.5106724245019 |  erot = 21.0828853352522 | epot = -78.1580084122886 | etot = -33.5644506525345
208000  ekin = 23.668353418066 |  erot = 20.9827921925509 | epot = -78.215596264084 | etot = -33.564450653467
209000  ekin = 23.8319531636425 |  erot = 20.8686960093069 | epot = -78.2650998050658 | etot = -33.5644506321163
210000  ekin = 24.1634900876388 |  erot = 20.8246815259916 | epot = -78.552622283472 | etot = -33.5644506698416
211000  ekin = 24.4545474929244 |  erot = 20.8320949387552 | epot = -78.8510930934343 | etot = -33.5644506617547
212000  ekin = 24.7210588847045 |  erot = 20.8889178093661 | epot = -79.174427356554 | etot = -33.5644506624833
213000  ekin = 24.976255591878 |  erot = 20.9956570670929 | epot = -79.5363633251375 | etot = -33.5644506661665
214000  ekin = 25.205483004661 |  erot = 21.1345527593251 | epot = -79.9044864310042 | etot = -33.564450667018
215000  ekin = 25.4055444850643 |  erot = 21.2948000239963 | epot = -80.2647951765986 | etot = -33.564450667538
216000  ekin = 25.5773395550221 |  erot = 21.4659469017803 | epot = -80.6077371248663 | etot = -33.564450668064
217000  ekin = 25.7224226234214 |  erot = 21.6383314527661 | epot = -80.9252047446759 | etot = -33.5644506684885
218000  ekin = 25.8456307141281 |  erot = 21.7996006617586 | epot = -81.2096820449127 | etot = -33.564450669026
219000  ekin = 25.952452354178 |  erot = 21.9358336225052 | epot = -81.4527366463146 | etot = -33.5644506696314
220000  ekin = 26.0480501371338 |  erot = 22.0331400323183 | epot = -81.6456408394079 | etot = -33.5644506699559
221000  ekin = 26.1377559921186 |  erot = 22.0801399062361 | epot = -81.782346568543 | etot = -33.5644506701882
222000  ekin = 26.2262421157094 |  erot = 22.0692633440437 | epot = -81.8599561297539 | etot = -33.5644506700009
223000  ekin = 26.3184403630316 |  erot = 21.998247465794 | epot = -81.8811384982163 | etot = -33.5644506693907
224000  ekin = 26.4171271373572 |  erot = 21.8710288815567 | epot = -81.8526066880831 | etot = -33.5644506691692
225000  ekin = 26.5225389104774 |  erot = 21.6965423522952 | epot = -81.7835319309002 | etot = -33.5644506681276
226000  ekin = 26.7157923548228 |  erot = 21.3119214438882 | epot = -81.5921644822178 | etot = -33.5644506835069
227000  ekin = 27.2484396436881 |  erot = 20.6374955150369 | epot = -81.4503858460087 | etot = -33.5644506872836
228000  ekin = 27.50785289717 |  erot = 20.2748179574114 | epot = -81.3471215226894 | etot = -33.564450668108
229000  ekin = 27.6312830551156 |  erot = 19.9858964954655 | epot = -81.1816302175573 | etot = -33.5644506669762
230000  ekin = 27.7676058404448 |  erot = 19.718943860054 | epot = -81.0510003675375 | etot = -33.5644506670387
231000  ekin = 27.9171898995973 |  erot = 19.4851196432192 | epot = -80.9667602108614 | etot = -33.564450668045
232000  ekin = 28.0758079095155 |  erot = 19.2892055600398 | epot = -80.9294641380357 | etot = -33.5644506684804
233000  ekin = 28.2354888581881 |  erot = 19.1284398309839 | epot = -80.9283793559347 | etot = -33.5644506667627
234000  ekin = 28.3953039485602 |  erot = 19.0132859353437 | epot = -80.9730405513681 | etot = -33.5644506674642
235000  ekin = 28.5569493494631 |  erot = 18.9585387746498 | epot = -81.0799387921256 | etot = -33.5644506680127
236000  ekin = 28.7166448189721 |  erot = 18.9671002033974 | epot = -81.2481956905016 | etot = -33.5644506681322
237000  ekin = 28.872502381985 |  erot = 19.04333818744 | epot = -81.4802912373827 | etot = -33.5644506679578
238000  ekin = 29.0257746256053 |  erot = 19.1916941122114 | epot = -81.7819194053431 | etot = -33.5644506675264
239000  ekin = 29.1795842186957 |  erot = 19.4168064167575 | epot = -82.160841302894 | etot = -33.5644506674407
240000  ekin = 29.3337146102067 |  erot = 19.7090725309409 | epot = -82.6072378097827 | etot = -33.5644506686351
241000  ekin = 29.486807896717 |  erot = 20.0596352267933 | epot = -83.1108937928099 | etot = -33.5644506692996
242000  ekin = 29.63510031695 |  erot = 20.46054578427 | epot = -83.6600967717034 | etot = -33.5644506704834
243000  ekin = 29.8921802423782 |  erot = 20.6958964402084 | epot = -84.1525273495648 | etot = -33.5644506669782
244000  ekin = 30.2594419587016 |  erot = 20.9649617308808 | epot = -84.788854393899 | etot = -33.5644507043167
245000  ekin = 30.3074620328741 |  erot = 21.3089995007088 | epot = -85.1809122847721 | etot = -33.5644507511892
246000  ekin = 30.6998172933653 |  erot = 21.0861202554901 | epot = -85.3503880690661 | etot = -33.5644505202107
247000  ekin = 31.2652124059163 |  erot = 21.7433599271826 | epot = -86.5730230770181 | etot = -33.5644507439192
248000  ekin = 31.2039013197208 |  erot = 22.3578318778062 | epot = -87.126183941998 | etot = -33.564450744471
249000  ekin = 31.0628965882811 |  erot = 22.9361503364767 | epot = -87.563497668335 | etot = -33.5644507435772
250000  ekin = 30.854421983567 |  erot = 23.473899984583 | epot = -87.8927727106656 | etot = -33.5644507425157
251000  ekin = 30.5979929542439 |  erot = 23.9732495372862 | epot = -88.1356932313084 | etot = -33.5644507397783
252000  ekin = 30.3186084933204 |  erot = 24.447023432716 | epot = -88.3300826628542 | etot = -33.5644507368178
253000  ekin = 30.0416328683383 |  erot = 24.9117142614472 | epot = -88.5177978640274 | etot = -33.5644507342419
254000  ekin = 29.6651322242567 |  erot = 25.3352238224943 | epot = -88.5648072260354 | etot = -33.5644511792843
255000  ekin = 27.9972596304581 |  erot = 25.3436445664331 | epot = -86.9053550133761 | etot = -33.5644508164849
256000  ekin = 27.4480536507282 |  erot = 26.2038023387736 | epot = -87.2163067907679 | etot = -33.5644508012661
257000  ekin = 28.510704468123 |  erot = 27.579360233818 | epot = -89.6545158781308 | etot = -33.5644511761898
258000  ekin = 28.9485040029252 |  erot = 27.9141399631344 | epot = -90.4270947739818 | etot = -33.5644508079221
259000  ekin = 29.1923898090772 |  erot = 28.2760336628686 | epot = -91.0328742826131 | etot = -33.5644508106674
260000  ekin = 29.4420659506762 |  erot = 28.6795119903237 | epot = -91.6860287570778 | etot = -33.5644508160779
261000  ekin = 29.6845039883525 |  erot = 29.1068404637636 | epot = -92.3557952702285 | etot = -33.5644508181123
262000  ekin = 29.8834680797315 |  erot = 29.546197080343 | epot = -92.9941159814442 | etot = -33.5644508213697
263000  ekin = 30.0159351907297 |  erot = 29.9649097381312 | epot = -93.5452957538478 | etot = -33.5644508249869
264000  ekin = 30.0524877646879 |  erot = 30.3384906869704 | epot = -93.9554292801896 | etot = -33.5644508285313
265000  ekin = 29.965945039697 |  erot = 30.6431999053425 | epot = -94.1735957766922 | etot = -33.5644508316528
266000  ekin = 29.7355380957042 |  erot = 30.8554934503338 | epot = -94.1554823800699 | etot = -33.5644508340319
267000  ekin = 29.3502172531252 |  erot = 30.9531552650623 | epot = -93.8678233536446 | etot = -33.564450835457
268000  ekin = 28.8109215599888 |  erot = 30.9159121160794 | epot = -93.2912845119129 | etot = -33.5644508358447
269000  ekin = 28.1312299025768 |  erot = 30.7258800106712 | epot = -92.4215607498539 | etot = -33.5644508366059
270000  ekin = 27.3365120331008 |  erot = 30.3685462543072 | epot = -91.269509141933 | etot = -33.564450854525
271000  ekin = 26.462155246615 |  erot = 29.8348321072966 | epot = -89.8614382055075 | etot = -33.5644508515959
272000  ekin = 25.5514537840415 |  erot = 29.1238715109526 | epot = -88.2397761424846 | etot = -33.5644508474905
273000  ekin = 24.6528090192396 |  erot = 28.2453291639356 | epot = -86.4625890256059 | etot = -33.5644508424306
274000  ekin = 23.8212346502145 |  erot = 27.2200000603161 | epot = -84.6056855414439 | etot = -33.5644508309133
275000  ekin = 22.9729777889089 |  erot = 26.0804823635617 | epot = -82.6179111120573 | etot = -33.5644509595867
276000  ekin = 22.0549791970914 |  erot = 24.8883860441614 | epot = -80.5078160553364 | etot = -33.5644508140835
277000  ekin = 22.2918454486589 |  erot = 23.6844629884894 | epot = -79.5407594438968 | etot = -33.5644510067485
278000  ekin = 22.293394483446 |  erot = 22.3796695906475 | epot = -78.2375149019641 | etot = -33.5644508278706
279000  ekin = 22.365974824978 |  erot = 21.1183819744053 | epot = -77.048807628689 | etot = -33.5644508293057
280000  ekin = 22.5183002078467 |  erot = 19.9334324614399 | epot = -76.0161834966305 | etot = -33.564450827344
281000  ekin = 22.7529481191335 |  erot = 18.8478601493443 | epot = -75.1652590940308 | etot = -33.5644508255529
282000  ekin = 23.0795879184876 |  erot = 17.877696647531 | epot = -74.52173538725 | etot = -33.5644508212314
283000  ekin = 23.5210121271401 |  erot = 17.0345324476669 | epot = -74.1199953957382 | etot = -33.5644508209311
284000  ekin = 24.0799247559095 |  erot = 16.3233784658948 | epot = -73.9677540517743 | etot = -33.56445082997
285000  ekin = 24.7785446246659 |  erot = 15.747824491376 | epot = -74.0908199422551 | etot = -33.5644508262132
286000  ekin = 25.6368387345565 |  erot = 15.3047487827964 | epot = -74.5060383422785 | etot = -33.5644508249256
287000  ekin = 26.6214548224882 |  erot = 14.9922504829429 | epot = -75.1781561309246 | etot = -33.5644508254935
288000  ekin = 27.7267158888713 |  erot = 14.8012865017165 | epot = -76.0924532218558 | etot = -33.564450831268
289000  ekin = 28.8920167227384 |  erot = 14.7169892845849 | epot = -77.1734568439618 | etot = -33.5644508366385
290000  ekin = 30.0553666648455 |  erot = 14.7251675417731 | epot = -78.3449850482785 | etot = -33.5644508416598
291000  ekin = 31.1595769632419 |  erot = 14.8119291202745 | epot = -79.5359569290992 | etot = -33.5644508455827
292000  ekin = 32.160821668981 |  erot = 14.9640713088991 | epot = -80.6893438261615 | etot = -33.5644508482814
293000  ekin = 33.0319319380141 |  erot = 15.1681739054601 | epot = -81.7645566936027 | etot = -33.5644508501284
294000  ekin = 33.7599421346913 |  erot = 15.4088106779925 | epot = -82.733203664278 | etot = -33.5644508515942
295000  ekin = 34.3413485939623 |  erot = 15.667394334244 | epot = -83.5731937811187 | etot = -33.5644508529123
296000  ekin = 34.7782829446666 |  erot = 15.9229210434236 | epot = -84.2656548420816 | etot = -33.5644508539914
297000  ekin = 35.0767101392265 |  erot = 16.1546669536466 | epot = -84.795827947462 | etot = -33.5644508545888
298000  ekin = 35.2457989813353 |  erot = 16.3457320030332 | epot = -85.1559818388986 | etot = -33.5644508545301
299000  ekin = 35.2970066855057 |  erot = 16.4859983979481 | epot = -85.3474559372897 | etot = -33.5644508538359
300000  ekin = 35.2422237261505 |  erot = 16.5735941681588 | epot = -85.3802687469799 | etot = -33.5644508526705
301000  ekin = 35.0916597610642 |  erot = 16.6147820199744 | epot = -85.2708926322428 | etot = -33.5644508512041
302000  ekin = 34.8528128910413 |  erot = 16.6227287108333 | epot = -85.0399924513855 | etot = -33.5644508495109
303000  ekin = 34.5312597670457 |  erot = 16.6156181966361 | epot = -84.7113288112826 | etot = -33.5644508476009
304000  ekin = 34.1313674341309 |  erot = 16.6227567332265 | epot = -84.3185750111407 | etot = -33.5644508437833
305000  ekin = 33.6571822643353 |  erot = 16.6720234605675 | epot = -83.8936565670667 | etot = -33.5644508421639
306000  ekin = 33.1151986331977 |  erot = 16.7769746117301 | epot = -83.4566240858608 | etot = -33.564450840933
307000  ekin = 32.5134330702691 |  erot = 16.9437629168013 | epot = -83.0216468273887 | etot = -33.5644508403183
308000  ekin = 31.8601474906636 |  erot = 17.1694637372824 | epot = -82.594062068379 | etot = -33.5644508404329
309000  ekin = 31.1628016434345 |  erot = 17.4420089824932 | epot = -82.169261466893 | etot = -33.5644508409653
310000  ekin = 30.4284939702959 |  erot = 17.7430091432327 | epot = -81.7359539560215 | etot = -33.5644508424929
311000  ekin = 29.6636970636844 |  erot = 18.0450727085007 | epot = -81.2732206157312 | etot = -33.5644508435461
312000  ekin = 28.8763119837979 |  erot = 18.321102691716 | epot = -80.7618655199104 | etot = -33.5644508443965
313000  ekin = 28.0757317031677 |  erot = 18.5482322979336 | epot = -80.1884148456499 | etot = -33.5644508445487
314000  ekin = 27.2754576014645 |  erot = 18.7102692133826 | epot = -79.5501776586633 | etot = -33.5644508438161
315000  ekin = 26.492751287486 |  erot = 18.8002978244104 | epot = -78.857499954216 | etot = -33.5644508423196
316000  ekin = 25.7476825206356 |  erot = 18.8201859999161 | epot = -78.1323193608514 | etot = -33.5644508402997
317000  ekin = 25.0614905057936 |  erot = 18.7788964667862 | epot = -77.4048378106182 | etot = -33.5644508380384
318000  ekin = 24.454690406824 |  erot = 18.6903703701082 | epot = -76.7095116127101 | etot = -33.5644508357779
319000  ekin = 23.9454326765565 |  erot = 18.5716676910561 | epot = -76.0815512012764 | etot = -33.5644508336638
320000  ekin = 23.5484361617745 |  erot = 18.4417359442123 | epot = -75.554622937728 | etot = -33.5644508317412
321000  ekin = 23.2745454665446 |  erot = 18.3209670206259 | epot = -75.1599633171643 | etot = -33.5644508299938
322000  ekin = 23.1307065449607 |  erot = 18.2311244116948 | epot = -74.9262817851006 | etot = -33.5644508284452
323000  ekin = 23.1199305194582 |  erot = 18.194872937873 | epot = -74.8792542845799 | etot = -33.5644508272487
324000  ekin = 23.2402241370503 |  erot = 18.2346442880208 | epot = -75.0393192518236 | etot = -33.5644508267526
325000  ekin = 23.4710021371507 |  erot = 18.3668956954106 | epot = -75.4023486639086 | etot = -33.5644508313472
326000  ekin = 23.7795455089506 |  erot = 18.5932769385955 | epot = -75.937273282089 | etot = -33.5644508345428
327000  ekin = 24.1343713307595 |  erot = 18.9009306658406 | epot = -76.599752836137 | etot = -33.5644508395369
328000  ekin = 24.4953646018627 |  erot = 19.2611055949256 | epot = -77.3209210426457 | etot = -33.5644508458575
329000  ekin = 24.8184483225453 |  erot = 19.6309716493689 | epot = -78.0138708243422 | etot = -33.564450852428
330000  ekin = 25.0648153576477 |  erot = 19.96008750389 | epot = -78.5893537190394 | etot = -33.5644508575017
331000  ekin = 25.2101383721726 |  erot = 20.200891938085 | epot = -78.9754811705843 | etot = -33.5644508603268
332000  ekin = 25.2457706638897 |  erot = 20.3248269291677 | epot = -79.1350484526783 | etot = -33.5644508596209
333000  ekin = 25.1861890029866 |  erot = 20.3296166390296 | epot = -79.0802564975773 | etot = -33.564450855561
334000  ekin = 25.0662190980907 |  erot = 20.2399843242777 | epot = -78.870654271559 | etot = -33.5644508491907
335000  ekin = 24.9333683336964 |  erot = 20.1009816219613 | epot = -78.5988007976463 | etot = -33.5644508419887
336000  ekin = 24.8381114575898 |  erot = 19.9670256544933 | epot = -78.3695879474352 | etot = -33.5644508353522
337000  ekin = 24.8247545151643 |  erot = 19.8908557635894 | epot = -78.2800611095624 | etot = -33.5644508308086
338000  ekin = 24.9246805342312 |  erot = 19.9088859976489 | epot = -78.3980173598808 | etot = -33.5644508280008
339000  ekin = 25.152274347001 |  erot = 20.0433658466211 | epot = -78.760091020991 | etot = -33.5644508273689
340000  ekin = 25.504032801475 |  erot = 20.306324357301 | epot = -79.3748079874618 | etot = -33.5644508286858
341000  ekin = 25.9593882032545 |  erot = 20.6972938179812 | epot = -80.2211328527276 | etot = -33.5644508314919
342000  ekin = 26.4842114255574 |  erot = 21.2060406181122 | epot = -81.2547028789742 | etot = -33.5644508353046
343000  ekin = 27.0356929913127 |  erot = 21.8153279723536 | epot = -82.4154718032516 | etot = -33.5644508395852
344000  ekin = 27.5676973345475 |  erot = 22.5033872894527 | epot = -83.6355354678306 | etot = -33.5644508438305
345000  ekin = 28.0359749647456 |  erot = 23.2463366467605 | epot = -84.8467624591462 | etot = -33.5644508476401
346000  ekin = 28.4026013553442 |  erot = 24.0201112992025 | epot = -85.9871635052608 | etot = -33.5644508507141
347000  ekin = 28.6398915195018 |  erot = 24.8020103746057 | epot = -87.0063527467865 | etot = -33.564450852679
348000  ekin = 28.7326075377892 |  erot = 25.5714490942751 | epot = -87.8685074860489 | etot = -33.5644508539846
349000  ekin = 28.6752584344377 |  erot = 26.3100180841274 | epot = -88.5497273730831 | etot = -33.564450854518
350000  ekin = 28.4730637357375 |  erot = 27.0009502159043 | epot = -89.0384648062145 | etot = -33.5644508545727
351000  ekin = 28.1395378484736 |  erot = 27.627064673711 | epot = -89.3310533768465 | etot = -33.5644508546619
352000  ekin = 27.692958073886 |  erot = 28.1676652362728 | epot = -89.4250741654134 | etot = -33.5644508552546
353000  ekin = 27.1526950366867 |  erot = 28.5958100265553 | epot = -89.3129559198037 | etot = -33.5644508565617
354000  ekin = 26.5365141387513 |  erot = 28.8781341172833 | epot = -88.9790991143378 | etot = -33.5644508583032
355000  ekin = 25.859879983656 |  erot = 28.9793031098145 | epot = -88.403633953062 | etot = -33.5644508595914
356000  ekin = 25.1375717946672 |  erot = 28.8722956886591 | epot = -87.5743183426306 | etot = -33.5644508593043
357000  ekin = 24.3868741549048 |  erot = 28.5495289602652 | epot = -86.5008539718494 | etot = -33.5644508566794
358000  ekin = 23.6300778927091 |  erot = 28.0297879778004 | epot = -85.2243167223656 | etot = -33.5644508518561
359000  ekin = 22.8939201469274 |  erot = 27.3556770361318 | epot = -83.8140480290192 | etot = -33.56445084596
360000  ekin = 22.2065780073065 |  erot = 26.5834479668237 | epot = -82.3544768141663 | etot = -33.5644508400362
361000  ekin = 21.5986345635084 |  erot = 25.7744654428011 | epot = -80.9375508371891 | etot = -33.5644508308797
362000  ekin = 21.1083260620864 |  erot = 24.9895078409249 | epot = -79.6622847318675 | etot = -33.5644508288562
363000  ekin = 20.7375100619504 |  erot = 24.2576398933449 | epot = -78.5596007834905 | etot = -33.5644508281952
364000  ekin = 20.4760033679324 |  erot = 23.5946470164371 | epot = -77.6351012127624 | etot = -33.5644508283929
365000  ekin = 20.3079089893242 |  erot = 23.0095138965661 | epot = -76.881873714852 | etot = -33.5644508289616
366000  ekin = 20.214797933549 |  erot = 22.5083719357782 | epot = -76.2876206988326 | etot = -33.5644508295053
367000  ekin = 20.1786185359905 |  erot = 22.0973297018124 | epot = -75.8403990676261 | etot = -33.5644508298232
368000  ekin = 20.1837486798771 |  erot = 21.7835270635056 | epot = -75.5317265732388 | etot = -33.5644508298561
369000  ekin = 20.2182310117898 |  erot = 21.5747388187409 | epot = -75.3574206602092 | etot = -33.5644508296785
370000  ekin = 20.2742556078765 |  erot = 21.4781104693655 | epot = -75.3168169067768 | etot = -33.5644508295347
371000  ekin = 20.3477066126224 |  erot = 21.4982876397953 | epot = -75.4104450815552 | etot = -33.5644508291375
372000  ekin = 20.439176908539 |  erot = 21.6370751258558 | epot = -75.6407028633015 | etot = -33.5644508289067
373000  ekin = 20.5523906693862 |  erot = 21.8921389377666 | epot = -76.0089804360378 | etot = -33.564450828885
374000  ekin = 20.6947607298566 |  erot = 22.2561865203736 | epot = -76.5153980788898 | etot = -33.5644508286596
375000  ekin = 20.8734352289601 |  erot = 22.717636106876 | epot = -77.1555221653319 | etot = -33.5644508294958
376000  ekin = 21.089493504469 |  erot = 23.2620769849354 | epot = -77.9160213199899 | etot = -33.5644508305855
377000  ekin = 21.3446674637107 |  erot = 23.8720082856038 | epot = -78.7811265808386 | etot = -33.5644508315241
378000  ekin = 21.6424854229154 |  erot = 24.5275644041149 | epot = -79.7345006598765 | etot = -33.5644508328462
379000  ekin = 21.9906215821139 |  erot = 25.2058289792473 | epot = -80.7609013956233 | etot = -33.5644508342621
380000  ekin = 22.3975872845228 |  erot = 25.8799316876658 | epot = -81.8419698100532 | etot = -33.5644508378646
381000  ekin = 22.8474625364515 |  erot = 26.5196756830492 | epot = -82.9315890609344 | etot = -33.5644508414338
382000  ekin = 23.3214968284977 |  erot = 27.0935868815723 | epot = -83.9795345554069 | etot = -33.5644508453369
383000  ekin = 23.7989486472932 |  erot = 27.5682880228148 | epot = -84.931687519227 | etot = -33.564450849119
384000  ekin = 24.2602946690644 |  erot = 27.9101784191705 | epot = -85.7349239405356 | etot = -33.5644508523007
385000  ekin = 24.6909701694563 |  erot = 28.0892515731805 | epot = -86.3446725967394 | etot = -33.5644508541026
386000  ekin = 25.0758089633995 |  erot = 28.0812872789536 | epot = -86.7215471012445 | etot = -33.5644508588914
387000  ekin = 25.3886917943804 |  erot = 27.8683599139997 | epot = -86.8215025662435 | etot = -33.5644508578634
388000  ekin = 25.632188810838 |  erot = 27.4567876604352 | epot = -86.6534273265178 | etot = -33.5644508552446
389000  ekin = 25.8173007944794 |  erot = 26.8690369421757 | epot = -86.2507885887618 | etot = -33.5644508521067
390000  ekin = 25.9562629243494 |  erot = 26.1386991558012 | epot = -85.6594129283174 | etot = -33.5644508481668
391000  ekin = 26.0625510047339 |  erot = 25.3050096520515 | epot = -84.9320115012943 | etot = -33.5644508445089
392000  ekin = 26.1477279257691 |  erot = 24.4077754075717 | epot = -84.1199541747635 | etot = -33.5644508414227
393000  ekin = 26.2207009125466 |  erot = 23.4862823970412 | epot = -83.2714341485053 | etot = -33.5644508389175
394000  ekin = 26.2880235522524 |  erot = 22.5776047858101 | epot = -82.4300791761657 | etot = -33.5644508381033
395000  ekin = 26.346132783034 |  erot = 21.6992206105286 | epot = -81.6098042309553 | etot = -33.5644508373927
396000  ekin = 26.3925769143386 |  erot = 20.8648963380174 | epot = -80.821924088939 | etot = -33.5644508365829
397000  ekin = 26.4280357588934 |  erot = 20.0875980485161 | epot = -80.0800846429637 | etot = -33.5644508355542
398000  ekin = 26.4568264159913 |  erot = 19.3805747697993 | epot = -79.4018520200534 | etot = -33.5644508342629
399000  ekin = 26.486391084042 |  erot = 18.7576183808507 | epot = -78.8084602983767 | etot = -33.5644508334841
400000  ekin = 26.5240355653425 |  erot = 18.230916584662 | epot = -78.3194029821537 | etot = -33.5644508321491
401000  ekin = 26.5785515874432 |  erot = 17.8133011774167 | epot = -77.9563035962204 | etot = -33.5644508313606
402000  ekin = 26.6553316874659 |  erot = 17.5146324371931 | epot = -77.7344149563977 | etot = -33.5644508317387
403000  ekin = 26.7508441444136 |  erot = 17.3369800816637 | epot = -77.6522750600487 | etot = -33.5644508339714
404000  ekin = 26.8478899846398 |  erot = 17.2703664411399 | epot = -77.6827072640795 | etot = -33.5644508382998
405000  ekin = 26.9136481513227 |  erot = 17.2906409835922 | epot = -77.7687399797568 | etot = -33.5644508448419
406000  ekin = 26.902674397938 |  erot = 17.3519919764081 | epot = -77.8191172253293 | etot = -33.5644508509831
407000  ekin = 26.7697793191194 |  erot = 17.415135256091 | epot = -77.7493654299207 | etot = -33.5644508547103
408000  ekin = 26.4852107130201 |  erot = 17.4599310845982 | epot = -77.5095926522982 | etot = -33.5644508546799
409000  ekin = 26.0447937745221 |  erot = 17.4897156368364 | epot = -77.098960262869 | etot = -33.5644508515105
410000  ekin = 25.4686689662899 |  erot = 17.5253086000761 | epot = -76.5584284133604 | etot = -33.5644508469944
411000  ekin = 24.7901856101857 |  erot = 17.5925678634609 | epot = -75.9472043166153 | etot = -33.5644508429687
412000  ekin = 24.0429450720742 |  erot = 17.7112262987076 | epot = -75.3186222111243 | etot = -33.5644508403425
413000  ekin = 23.2530709440338 |  erot = 17.8904894600805 | epot = -74.7080112431441 | etot = -33.5644508390299
414000  ekin = 22.4380957568901 |  erot = 18.1309089881943 | epot = -74.1334555836204 | etot = -33.564450838536
415000  ekin = 21.6095002971924 |  erot = 18.4284521146819 | epot = -73.6024032502391 | etot = -33.5644508383649
416000  ekin = 20.7759703154082 |  erot = 18.7780315273201 | epot = -73.118452680922 | etot = -33.5644508381938
417000  ekin = 19.9459219944038 |  erot = 19.1754390644873 | epot = -72.6858118967634 | etot = -33.5644508378722
418000  ekin = 19.1290603143774 |  erot = 19.6178812357834 | epot = -72.3113923875065 | etot = -33.5644508373457
419000  ekin = 18.3372411745025 |  erot = 20.1037315121647 | epot = -72.0054235232776 | etot = -33.5644508366105
420000  ekin = 17.5848708565761 |  erot = 20.6319495842718 | epot = -71.7812712765556 | etot = -33.5644508357077
421000  ekin = 16.8888669765924 |  erot = 21.2012508781122 | epot = -71.6545686894538 | etot = -33.5644508347492
422000  ekin = 16.2680311853036 |  erot = 21.8088345391368 | epot = -71.6413165583944 | etot = -33.5644508339539
423000  ekin = 15.7416423466106 |  erot = 22.4484657014916 | epot = -71.7545588817541 | etot = -33.5644508336519
424000  ekin = 15.3271568810227 |  erot = 23.1079611162136 | epot = -71.9995688314965 | etot = -33.5644508342603
425000  ekin = 15.0370245442588 |  erot = 23.7664993128348 | epot = -72.3679746933089 | etot = -33.5644508362152
426000  ekin = 14.8748792452762 |  erot = 24.3924933231257 | epot = -72.8318234082353 | etot = -33.5644508398334
427000  ekin = 14.832039809891 |  erot = 24.9432466995554 | epot = -73.3397373544554 | etot = -33.5644508450089
428000  ekin = 14.8863924965903 |  erot = 25.3682827941941 | epot = -73.8191261416368 | etot = -33.5644508508524
429000  ekin = 15.0062259695536 |  erot = 25.6182665544901 | epot = -74.1889433796849 | etot = -33.5644508556412
430000  ekin = 15.1595389322386 |  erot = 25.6590201133409 | epot = -74.3830099030951 | etot = -33.5644508575156
431000  ekin = 15.3249133700204 |  erot = 25.4851984009469 | epot = -74.3745626265997 | etot = -33.5644508556324
432000  ekin = 15.4974987578396 |  erot = 25.1253113467593 | epot = -74.1872609553591 | etot = -33.5644508507602
433000  ekin = 15.6867402478393 |  erot = 24.6339851580543 | epot = -73.8851762506123 | etot = -33.5644508447187
434000  ekin = 15.9084789526213 |  erot = 24.0759117529174 | epot = -73.5488415447801 | etot = -33.5644508392414
435000  ekin = 16.1769022060813 |  erot = 23.5103596608179 | epot = -73.2517127021918 | etot = -33.5644508352926
436000  ekin = 16.4997173060693 |  erot = 22.9822765166377 | epot = -73.0464446558256 | etot = -33.5644508331186
437000  ekin = 16.8769806269271 |  erot = 22.5199344327167 | epot = -72.9613658920677 | etot = -33.5644508324239
438000  ekin = 17.3021259572723 |  erot = 22.1372453982782 | epot = -73.0038221883655 | etot = -33.564450832815
439000  ekin = 17.7637229040345 |  erot = 21.8373393625495 | epot = -73.1655131005283 | etot = -33.5644508339444
440000  ekin = 18.2471223980941 |  erot = 21.6157595594915 | epot = -73.4273327931382 | etot = -33.5644508355527
441000  ekin = 18.7357201396315 |  erot = 21.4628710844972 | epot = -73.7630420616082 | etot = -33.5644508374795
442000  ekin = 19.2118878213651 |  erot = 21.3654515420609 | epot = -74.141790203016 | etot = -33.5644508395901
443000  ekin = 19.6577318125493 |  erot = 21.3079015376381 | epot = -74.5300841919544 | etot = -33.564450841767
444000  ekin = 20.0558238633898 |  erot = 21.2733344148265 | epot = -74.8936091221087 | etot = -33.5644508438924
445000  ekin = 20.3899893912885 |  erot = 21.2445884062357 | epot = -75.1990286433544 | etot = -33.5644508458303
446000  ekin = 20.6461236044484 |  erot = 21.2052857367545 | epot = -75.4158601887116 | etot = -33.5644508475088
447000  ekin = 20.8131102287858 |  erot = 21.1405154512131 | epot = -75.518076528097 | etot = -33.5644508480981
448000  ekin = 20.8836321565674 |  erot = 21.0415726580894 | epot = -75.4896556636667 | etot = -33.5644508490099
449000  ekin = 20.8549766396704 |  erot = 20.9006105485908 | epot = -75.3200380377057 | etot = -33.5644508494445
450000  ekin = 20.728999598904 |  erot = 20.7094982245192 | epot = -75.0029486727931 | etot = -33.56445084937
451000  ekin = 20.5121237020787 |  erot = 20.4634057688063 | epot = -74.5399803196544 | etot = -33.5644508487695
452000  ekin = 20.2152499007883 |  erot = 20.1611428755481 | epot = -73.9408436239746 | etot = -33.5644508476382
453000  ekin = 19.8534700765169 |  erot = 19.8054562089305 | epot = -73.2233771314449 | etot = -33.5644508459975
454000  ekin = 19.4456214291548 |  erot = 19.4031472754561 | epot = -72.4132195485108 | etot = -33.5644508438999
455000  ekin = 19.0137205228052 |  erot = 18.9648723133003 | epot = -71.5430436775224 | etot = -33.5644508414169
456000  ekin = 18.5823093299559 |  erot = 18.5046119869738 | epot = -70.651372155597 | etot = -33.5644508386673
457000  ekin = 18.1775784949322 |  erot = 18.0385547553491 | epot = -69.7805840861403 | etot = -33.5644508358589
458000  ekin = 17.8262193052079 |  erot = 17.5834820271197 | epot = -68.9741521652964 | etot = -33.5644508329688
459000  ekin = 17.5544328314109 |  erot = 17.1574115034051 | epot = -68.276295165173 | etot = -33.5644508303569
460000  ekin = 17.3857834993088 |  erot = 16.7769882364628 | epot = -67.7272225640189 | etot = -33.5644508282473
461000  ekin = 17.3389537756575 |  erot = 16.4559737247299 | epot = -67.3593783272536 | etot = -33.5644508268662
462000  ekin = 17.425442154096 |  erot = 16.2041333991476 | epot = -67.1940263796384 | etot = -33.5644508263947
463000  ekin = 17.6475549837518 |  erot = 16.0264214062755 | epot = -67.2384272169676 | etot = -33.5644508269403
464000  ekin = 17.9971528391332 |  erot = 15.9226257282582 | epot = -67.4842293958827 | etot = -33.5644508284913
465000  ekin = 18.4555654855637 |  erot = 15.8876205731725 | epot = -67.9076368896376 | etot = -33.5644508309014
466000  ekin = 18.9948338162397 |  erot = 15.9122553306711 | epot = -68.4715399808303 | etot = -33.5644508339195
467000  ekin = 19.5800987880485 |  erot = 15.9847161183385 | epot = -69.1292657436298 | etot = -33.5644508372427
468000  ekin = 20.1726645576265 |  erot = 16.0920334747141 | epot = -69.8291488729263 | etot = -33.5644508405857
469000  ekin = 20.733152053916 |  erot = 16.221391025875 | epot = -70.5189939235108 | etot = -33.5644508437198
470000  ekin = 21.2242791251954 |  erot = 16.3610502013971 | epot = -71.1497801730746 | etot = -33.5644508464821
471000  ekin = 21.6130740295156 |  erot = 16.5009517690855 | epot = -71.678476647352 | etot = -33.5644508487508
472000  ekin = 21.872591383065 |  erot = 16.6332178545045 | epot = -72.0702600879841 | etot = -33.5644508504146
473000  ekin = 21.9833185471906 |  erot = 16.752743632292 | epot = -72.3005130308401 | etot = -33.5644508513575
474000  ekin = 21.9344099206612 |  erot = 16.857872076428 | epot = -72.3567328485647 | etot = -33.5644508514755
475000  ekin = 21.7247480854791 |  erot = 16.9509439425667 | epot = -72.2401428787508 | etot = -33.5644508507051
476000  ekin = 21.3637036555101 |  erot = 17.0384540155423 | epot = -71.9666085201051 | etot = -33.5644508490527
477000  ekin = 20.8713853164026 |  erot = 17.1305938642813 | epot = -71.5664300272847 | etot = -33.5644508466008
478000  ekin = 20.2781056159674 |  erot = 17.2401904856534 | epot = -71.0827469452016 | etot = -33.5644508435808
479000  ekin = 19.6228148923806 |  erot = 17.3807417057191 | epot = -70.5680074384014 | etot = -33.5644508403016
480000  ekin = 18.9501924821441 |  erot = 17.5641098023732 | epot = -70.0787531217207 | etot = -33.5644508372034
481000  ekin = 18.3063999209368 |  erot = 17.797862690029 | epot = -69.6687134457571 | etot = -33.5644508347913
482000  ekin = 17.7338800310286 |  erot = 18.0826185787069 | epot = -69.3809494432774 | etot = -33.5644508335419
483000  ekin = 17.2661333871563 |  erot = 18.4098565340988 | epot = -69.2404407550429 | etot = -33.5644508337878
484000  ekin = 16.9123469728204 |  erot = 18.5839236847763 | epot = -69.0607216152347 | etot = -33.5644509576379
485000  ekin = 17.247305212236 |  erot = 17.4463141947996 | epot = -68.258070031764 | etot = -33.5644506247285
486000  ekin = 18.3155143094868 |  erot = 17.1832730976427 | epot = -69.0632384228835 | etot = -33.564451015754
487000  ekin = 18.1324826617027 |  erot = 17.2801627137092 | epot = -68.977096153568 | etot = -33.5644507781561
488000  ekin = 18.0650666713161 |  erot = 17.4264266856159 | epot = -69.0559441349597 | etot = -33.5644507780277
489000  ekin = 18.1230207574981 |  erot = 17.620136992643 | epot = -69.307608529224 | etot = -33.5644507790829
490000  ekin = 18.2959502063542 |  erot = 17.8551924364658 | epot = -69.7155934236003 | etot = -33.5644507807803
491000  ekin = 18.5602651983313 |  erot = 18.123999262397 | epot = -70.2487152441877 | etot = -33.5644507834594
492000  ekin = 18.8855238702367 |  erot = 18.4159985146641 | epot = -70.865973170573 | etot = -33.5644507856721
493000  ekin = 19.2395352568949 |  erot = 18.7282644790467 | epot = -71.5322505229077 | etot = -33.5644507869661
494000  ekin = 19.5921246704162 |  erot = 19.0689157917918 | epot = -72.2254912501255 | etot = -33.5644507879176
495000  ekin = 19.0728202100295 |  erot = 18.9158482410515 | epot = -71.5531189782699 | etot = -33.5644505271888
496000  ekin = 19.8797920561591 |  erot = 18.7380967906704 | epot = -72.1823393789322 | etot = -33.5644505321026
497000  ekin = 21.3129327569036 |  erot = 19.2208596907778 | epot = -74.0982428018615 | etot = -33.5644503541801
498000  ekin = 21.3264694813826 |  erot = 19.7980335583071 | epot = -74.6889533936536 | etot = -33.5644503539639
499000  ekin = 21.2778907744272 |  erot = 20.4793064455191 | epot = -75.3216475742271 | etot = -33.5644503542807
500000  ekin = 21.1661916284599 |  erot = 21.2581781220766 | epot = -75.9888201056457 | etot = -33.5644503551092
501000  ekin = 20.992682537695 |  erot = 22.1178388252378 | epot = -76.6749717193882 | etot = -33.5644503564554
502000  ekin = 20.7610606942433 |  erot = 23.0317414649797 | epot = -77.3572525172906 | etot = -33.5644503580677
503000  ekin = 20.4798770189085 |  erot = 23.9650377703608 | epot = -78.0093651493821 | etot = -33.5644503601128
504000  ekin = 20.1546807720272 |  erot = 24.8789199641708 | epot = -78.5980510985693 | etot = -33.5644503623714
505000  ekin = 19.7897861053194 |  erot = 25.7326258919852 | epot = -79.0868623621169 | etot = -33.5644503648123
506000  ekin = 19.3875459004008 |  erot = 26.4882337366681 | epot = -79.4402300034154 | etot = -33.5644503663465
507000  ekin = 18.9527707504316 |  erot = 27.1161379580611 | epot = -79.6333590753096 | etot = -33.5644503668169
508000  ekin = 18.4930541128471 |  erot = 27.6003825986831 | epot = -79.6578870774276 | etot = -33.5644503658974
509000  ekin = 18.0182547167315 |  erot = 27.9414911091507 | epot = -79.5241961899708 | etot = -33.5644503640886
510000  ekin = 17.5239659448043 |  erot = 28.149952151993 | epot = -79.2383684581507 | etot = -33.5644503613534
511000  ekin = 17.0202767590015 |  erot = 28.2490270327636 | epot = -78.8337541498388 | etot = -33.5644503580738
512000  ekin = 16.5245718008653 |  erot = 28.2698315417119 | epot = -78.3588536974426 | etot = -33.5644503548654
513000  ekin = 16.0539184299035 |  erot = 28.2435719403674 | epot = -77.8619407224922 | etot = -33.5644503522214
514000  ekin = 15.6229539754272 |  erot = 28.1963871949646 | epot = -77.3837915207992 | etot = -33.5644503504074
515000  ekin = 15.2424792423252 |  erot = 28.1464443105065 | epot = -76.9533739023868 | etot = -33.5644503495552
516000  ekin = 14.9188926059622 |  erot = 28.1027540352537 | epot = -76.5860969906309 | etot = -33.564450349415
517000  ekin = 14.6543809155118 |  erot = 28.06782372912 | epot = -76.2866549944446 | etot = -33.5644503498127
518000  ekin = 14.4476572459101 |  erot = 28.0395642676249 | epot = -76.0516718640161 | etot = -33.5644503504811
519000  ekin = 14.2950490442982 |  erot = 28.0138489410349 | epot = -75.873348336478 | etot = -33.5644503511449
520000  ekin = 14.1917488340302 |  erot = 27.987081358533 | epot = -75.7432805441466 | etot = -33.5644503515834
521000  ekin = 14.1329830513553 |  erot = 27.9581295480032 | epot = -75.65556295104 | etot = -33.5644503516814
522000  ekin = 14.1002586405888 |  erot = 27.7732671763212 | epot = -75.4379761964961 | etot = -33.5644503795861
523000  ekin = 14.1969588164299 |  erot = 27.1027118577723 | epot = -74.864120975055 | etot = -33.5644503008527
524000  ekin = 14.7378402620858 |  erot = 26.6164089144592 | epot = -74.9186994730288 | etot = -33.5644502964838
525000  ekin = 15.5068672856199 |  erot = 26.5883544535157 | epot = -75.6596721114848 | etot = -33.5644503723492
526000  ekin = 15.8574449979288 |  erot = 26.672495723977 | epot = -76.0943910945311 | etot = -33.5644503726253
527000  ekin = 16.0112069684263 |  erot = 26.7355098951354 | epot = -76.3111672368587 | etot = -33.5644503732969
528000  ekin = 16.1641744092438 |  erot = 26.7947978812956 | epot = -76.5234226644588 | etot = -33.5644503739194
529000  ekin = 16.31590097626 |  erot = 26.8380825382024 | epot = -76.7184338887744 | etot = -33.564450374312
530000  ekin = 16.4667477212022 |  erot = 26.8553312027038 | epot = -76.886529298316 | etot = -33.56445037441
531000  ekin = 16.6177352356609 |  erot = 26.8400251087424 | epot = -77.0222107186575 | etot = -33.5644503742541
532000  ekin = 16.770215067741 |  erot = 26.7891084874972 | epot = -77.1237739291463 | etot = -33.5644503739081
533000  ekin = 16.9253640368234 |  erot = 26.7024973874852 | epot = -77.1923117977687 | etot = -33.5644503734601
534000  ekin = 17.0836447867598 |  erot = 26.58221765305 | epot = -77.2303128128455 | etot = -33.5644503730356
535000  ekin = 17.2444487916047 |  erot = 26.4310079590312 | epot = -77.2399071233769 | etot = -33.5644503727409
536000  ekin = 17.4060591054311 |  erot = 26.2510049058484 | epot = -77.2215143838854 | etot = -33.5644503726058
537000  ekin = 17.5658991981915 |  erot = 26.0431264910273 | epot = -77.173476061776 | etot = -33.5644503725571
538000  ekin = 17.7209415436514 |  erot = 25.807444121974 | epot = -77.0928360382414 | etot = -33.564450372616
539000  ekin = 17.8681497078412 |  erot = 25.5433035300507 | epot = -76.975903610542 | etot = -33.5644503726501
540000  ekin = 18.0048631562537 |  erot = 25.2502517039859 | epot = -76.8195652328352 | etot = -33.5644503725956
541000  ekin = 18.1290648268253 |  erot = 24.9288645878341 | epot = -76.6223797870756 | etot = -33.5644503724161
542000  ekin = 18.2395164935279 |  erot = 24.5811691616712 | epot = -76.385136027283 | etot = -33.5644503720839
543000  ekin = 18.3357700076027 |  erot = 24.2108468343312 | epot = -76.111067213597 | etot = -33.5644503716632
544000  ekin = 18.4180615069661 |  erot = 23.822913124474 | epot = -75.8054250026106 | etot = -33.5644503711705
545000  ekin = 18.4870901295397 |  erot = 23.4236993424187 | epot = -75.4752398421094 | etot = -33.564450370151
546000  ekin = 18.5436104703282 |  erot = 23.0232726204781 | epot = -75.1313334605625 | etot = -33.5644503697562
547000  ekin = 18.5881260723119 |  erot = 22.6282216102823 | epot = -74.7807980520799 | etot = -33.5644503694857
548000  ekin = 18.6206521534421 |  erot = 22.2431161970437 | epot = -74.4282187194411 | etot = -33.5644503689554
549000  ekin = 18.6395328547254 |  erot = 21.8731131588225 | epot = -74.0770963828687 | etot = -33.5644503693209
550000  ekin = 18.6420012520637 |  erot = 21.5194517196558 | epot = -73.725903341645 | etot = -33.5644503699255
551000  ekin = 18.6249210287 |  erot = 21.1784779029932 | epot = -73.3678493024196 | etot = -33.5644503707264
552000  ekin = 18.5841928763055 |  erot = 20.8452278497178 | epot = -72.9938710976178 | etot = -33.5644503715945
553000  ekin = 18.5152127051256 |  erot = 20.5148731370619 | epot = -72.5945362145145 | etot = -33.5644503723271
554000  ekin = 18.4136816903956 |  erot = 20.1848933333948 | epot = -72.1630253964729 | etot = -33.5644503726826
555000  ekin = 18.2766906395207 |  erot = 19.8574769329614 | epot = -71.6986179449273 | etot = -33.5644503724451
556000  ekin = 18.1040115043001 |  erot = 19.5406874739662 | epot = -71.2091493499574 | etot = -33.564450371691
557000  ekin = 17.8992309641425 |  erot = 19.2497226291995 | epot = -70.7134039632769 | etot = -33.5644503699349
558000  ekin = 17.6705778368424 |  erot = 19.0080857257665 | epot = -70.2431139300864 | etot = -33.5644503674776
559000  ekin = 17.431565392153 |  erot = 18.8444628127675 | epot = -69.8404785694053 | etot = -33.5644503644849
560000  ekin = 17.2006230342388 |  erot = 18.7901643787238 | epot = -69.5552377742929 | etot = -33.5644503613303
561000  ekin = 16.9995569153942 |  erot = 18.874961024222 | epot = -69.4389682980407 | etot = -33.5644503584246
562000  ekin = 16.8505251053008 |  erot = 19.1232120105132 | epot = -69.5381874721282 | etot = -33.5644503563142
563000  ekin = 16.7718160192495 |  erot = 19.5498137339769 | epot = -69.8860801087889 | etot = -33.5644503555625
564000  ekin = 16.7730284246714 |  erot = 20.1561760616542 | epot = -70.4936548432681 | etot = -33.5644503569425
565000  ekin = 16.8503463810059 |  erot = 20.9261148986237 | epot = -71.3409116397775 | etot = -33.5644503601478
566000  ekin = 16.9881817945826 |  erot = 21.8252877512978 | epot = -72.3779199111433 | etot = -33.5644503652629
567000  ekin = 17.1597730185805 |  erot = 22.8021750343992 | epot = -73.5263984248479 | etot = -33.5644503718681
568000  ekin = 17.3309908957802 |  erot = 23.7909429900997 | epot = -74.6863842651742 | etot = -33.5644503792942
569000  ekin = 17.4658946009332 |  erot = 24.7167318455382 | epot = -75.7470768331576 | etot = -33.5644503866861
570000  ekin = 17.5327796648855 |  erot = 25.5030724458917 | epot = -76.6003025038648 | etot = -33.5644503930876
571000  ekin = 17.5098280193555 |  erot = 26.0808668139721 | epot = -77.1551452308853 | etot = -33.5644503975577
572000  ekin = 17.3896134292075 |  erot = 26.3976580234568 | epot = -77.3517218520161 | etot = -33.5644503993518
573000  ekin = 17.1817696515051 |  erot = 26.4252545065072 | epot = -77.1714745561322 | etot = -33.56445039812
574000  ekin = 16.913201215067 |  erot = 26.1636856783447 | epot = -76.641337287463 | etot = -33.5644503940513
575000  ekin = 16.6253831476175 |  erot = 25.6401831362432 | epot = -75.8300166717679 | etot = -33.5644503879073
576000  ekin = 16.3805854483758 |  erot = 24.9437607563793 | epot = -74.8887965735571 | etot = -33.564450368802
577000  ekin = 16.2309295885521 |  erot = 24.1552332191562 | epot = -73.9506131737002 | etot = -33.5644503659918
578000  ekin = 16.200342678936 |  erot = 23.2996785342887 | epot = -73.0644715772694 | etot = -33.5644503640447
579000  ekin = 16.29839382583 |  erot = 22.4032685643067 | epot = -72.2661127533588 | etot = -33.564450363222
580000  ekin = 16.5164282815794 |  erot = 21.4889399504496 | epot = -71.5698185977469 | etot = -33.5644503657179
581000  ekin = 16.8294131727627 |  erot = 20.5770732253066 | epot = -70.9709367636358 | etot = -33.5644503655664
582000  ekin = 17.2014342864265 |  erot = 19.7085617422344 | epot = -70.4744463945071 | etot = -33.5644503658461
583000  ekin = 17.5894541378055 |  erot = 18.9251667745054 | epot = -70.0790712784199 | etot = -33.5644503661091
584000  ekin = 17.9521233670238 |  erot = 18.2657373644397 | epot = -69.7823110975526 | etot = -33.564450366089
585000  ekin = 18.2577014583595 |  erot = 17.7627566557059 | epot = -69.5849084797698 | etot = -33.5644503657044
586000  ekin = 18.4890373220088 |  erot = 17.4391816024091 | epot = -69.4926692893775 | etot = -33.5644503649596
587000  ekin = 18.6451700997108 |  erot = 17.3070654477701 | epot = -69.5166859113623 | etot = -33.5644503638815
588000  ekin = 18.7400423389035 |  erot = 17.3682960792809 | epot = -69.6727887807465 | etot = -33.5644503625621
589000  ekin = 18.798828999631 |  erot = 17.6163757901576 | epot = -69.9796551510655 | etot = -33.5644503612769
590000  ekin = 18.8521852512148 |  erot = 18.0377077414211 | epot = -70.4543433531295 | etot = -33.5644503604936
591000  ekin = 18.9335216733968 |  erot = 18.6145318735139 | epot = -71.1125039063818 | etot = -33.5644503594711
592000  ekin = 19.073637236602 |  erot = 19.3273958983243 | epot = -71.9654834953418 | etot = -33.5644503604155
593000  ekin = 19.2836835996002 |  erot = 20.1464047120878 | epot = -72.9945386745131 | etot = -33.5644503628251
594000  ekin = 19.5596584179829 |  erot = 21.0341232370397 | epot = -74.1582320214426 | etot = -33.56445036642
595000  ekin = 19.8847224285581 |  erot = 21.9477887871207 | epot = -75.3969615863468 | etot = -33.564450370668
596000  ekin = 20.2229995976135 |  erot = 22.8321032473285 | epot = -76.6195532301254 | etot = -33.5644503851833
597000  ekin = 20.5134057742646 |  erot = 23.6125551253905 | epot = -77.6904112892066 | etot = -33.5644503895515
598000  ekin = 20.7238255182563 |  erot = 24.246675398071 | epot = -78.5349513085238 | etot = -33.5644503921965
599000  ekin = 20.832610523618 |  erot = 24.7094660550357 | epot = -79.1065269715751 | etot = -33.5644503929214
600000  ekin = 20.828192883237 |  erot = 24.9942677717635 | epot = -79.3869110469358 | etot = -33.5644503919354
601000  ekin = 20.7081769096189 |  erot = 25.1108515570331 | epot = -79.3834788563548 | etot = -33.5644503897027
602000  ekin = 20.4770754639741 |  erot = 25.0812117052786 | epot = -79.1227375560352 | etot = -33.5644503867825
603000  ekin = 20.1436196140952 |  erot = 24.9343592758663 | epot = -78.6424292736326 | etot = -33.5644503836711
604000  ekin = 19.7184185862327 |  erot = 24.7015463480008 | epot = -77.9844153149457 | etot = -33.5644503807123
605000  ekin = 19.2123955081434 |  erot = 24.4128183892541 | epot = -77.1896642754735 | etot = -33.564450378076
606000  ekin = 18.636057156557 |  erot = 24.0951290254124 | epot = -76.2956365577632 | etot = -33.5644503757938
607000  ekin = 17.9994317313594 |  erot = 23.7717793950024 | epot = -75.3356615001663 | etot = -33.5644503738045
608000  ekin = 17.3124228754093 |  erot = 23.4627525840782 | epot = -74.3396258314918 | etot = -33.5644503720043
609000  ekin = 16.5853412867222 |  erot = 23.1855122466505 | epot = -73.3353039036598 | etot = -33.5644503702871
610000  ekin = 15.8294285553648 |  erot = 22.955913064756 | epot = -72.3497919886811 | etot = -33.5644503685604
611000  ekin = 15.0572484571448 |  erot = 22.7889597194566 | epot = -71.4106585433768 | etot = -33.5644503667754
612000  ekin = 14.2829782527674 |  erot = 22.6991649586027 | epot = -70.5465935762883 | etot = -33.5644503649182
613000  ekin = 13.5233158610868 |  erot = 22.7018063021125 | epot = -69.7895725251099 | etot = -33.5644503619107
614000  ekin = 12.7974443556318 |  erot = 22.8128628311251 | epot = -69.1747575470901 | etot = -33.5644503603333
615000  ekin = 12.1222485231343 |  erot = 23.0409824247406 | epot = -68.7276813069444 | etot = -33.5644503590695
616000  ekin = 11.5143476716764 |  erot = 23.3894333496936 | epot = -68.4682313798894 | etot = -33.5644503585194
617000  ekin = 10.989510532013 |  erot = 23.8529820632188 | epot = -68.4069429539034 | etot = -33.5644503586716
618000  ekin = 10.5621427376819 |  erot = 24.4166592372158 | epot = -68.5432523346681 | etot = -33.5644503597704
619000  ekin = 10.2447233165927 |  erot = 25.0539361234111 | epot = -68.863109801869 | etot = -33.5644503618652
620000  ekin = 10.0473729678186 |  erot = 25.726395813349 | epot = -69.3382191459773 | etot = -33.5644503648097
621000  ekin = 9.97770919290929 |  erot = 26.386029453845 | epot = -69.9281890149771 | etot = -33.5644503682228
622000  ekin = 10.0410058287983 |  erot = 26.9805251333541 | epot = -70.5859813336851 | etot = -33.5644503715327
623000  ekin = 10.2405907640288 |  erot = 27.4608678066392 | epot = -71.2659089448123 | etot = -33.5644503741443
624000  ekin = 10.5781077602125 |  erot = 27.7891749594506 | epot = -71.9317330953629 | etot = -33.5644503756998
625000  ekin = 11.0534790488925 |  erot = 27.9443540022702 | epot = -72.5622834272132 | etot = -33.5644503760505
626000  ekin = 11.6650239604907 |  erot = 27.923666062588 | epot = -73.1531403985201 | etot = -33.5644503754414
627000  ekin = 12.4090657071092 |  erot = 27.7401487502546 | epot = -73.7136648315781 | etot = -33.5644503742143
628000  ekin = 13.2797303324735 |  erot = 27.4180442684591 | epot = -74.2622249736713 | etot = -33.5644503727386
629000  ekin = 14.2227247795991 |  erot = 26.9288523646928 | epot = -74.7160277906757 | etot = -33.5644506463838
630000  ekin = 14.6371369632604 |  erot = 25.6849986211509 | epot = -73.8865860599035 | etot = -33.5644504754923
631000  ekin = 15.193274821826 |  erot = 24.8015291113728 | epot = -73.5592542902993 | etot = -33.5644503571006
632000  ekin = 16.5842231797246 |  erot = 25.1927867333812 | epot = -75.341460396675 | etot = -33.5644504835692
633000  ekin = 18.112998104192 |  erot = 25.8399990856776 | epot = -77.5174478402995 | etot = -33.5644506504299
634000  ekin = 19.1483265817988 |  erot = 25.7387528534344 | epot = -78.4515299850124 | etot = -33.5644505497792
635000  ekin = 20.1638306067772 |  erot = 25.6154971447261 | epot = -79.3437783054425 | etot = -33.5644505539392
636000  ekin = 21.1529452176643 |  erot = 25.4927802224157 | epot = -80.2101759990722 | etot = -33.5644505589922
637000  ekin = 22.0768404103848 |  erot = 25.3376757552784 | epot = -80.9789667293992 | etot = -33.564450563736
638000  ekin = 22.8998086477858 |  erot = 25.1175243536063 | epot = -81.5817835683412 | etot = -33.564450566949
639000  ekin = 23.5958452390938 |  erot = 24.8103240273031 | epot = -81.9706198344007 | etot = -33.5644505680037
640000  ekin = 24.1448393930528 |  erot = 24.410407077634 | epot = -82.1196970387692 | etot = -33.5644505680824
641000  ekin = 24.5337741503902 |  erot = 23.9290519071784 | epot = -82.0272766222997 | etot = -33.5644505647312
642000  ekin = 24.7698696432238 |  erot = 23.3958020413586 | epot = -81.7301222462645 | etot = -33.5644505616821
643000  ekin = 24.8669267972033 |  erot = 22.8392829406531 | epot = -81.2706602965965 | etot = -33.5644505587401
644000  ekin = 24.8431155048939 |  erot = 22.2830723078699 | epot = -80.6906383690073 | etot = -33.5644505562435
645000  ekin = 24.7193046978169 |  erot = 21.7428697621321 | epot = -80.0266250141403 | etot = -33.5644505541914
646000  ekin = 24.5180931834087 |  erot = 21.2270132542931 | epot = -79.3095569901596 | etot = -33.5644505524577
647000  ekin = 24.2628521145591 |  erot = 20.7388201336033 | epot = -78.5661227991356 | etot = -33.5644505509732
648000  ekin = 23.9761808160263 |  erot = 20.2787945263858 | epot = -77.8194258922022 | etot = -33.5644505497901
649000  ekin = 23.6778736583564 |  erot = 19.8458221784504 | epot = -77.0881463858086 | etot = -33.5644505490018
650000  ekin = 23.3831896178209 |  erot = 19.4375683296412 | epot = -76.3852084960798 | etot = -33.5644505486177
651000  ekin = 23.1045251438657 |  erot = 19.0455994378965 | epot = -75.7145751310396 | etot = -33.5644505492775
652000  ekin = 22.8525540954569 |  erot = 18.6600582432554 | epot = -75.0770628876433 | etot = -33.564450548931
[...]
837000  ekin = 19.2754657711545 |  erot = 16.2074384715496 | epot = -69.0473550542585 | etot = -33.5644508115544
838000  ekin = 19.6129197660233 |  erot = 16.3051003182067 | epot = -69.4824708982434 | etot = -33.5644508140134
839000  ekin = 19.9795904932951 |  erot = 16.4066729983315 | epot = -69.9507143082847 | etot = -33.5644508166582
840000  ekin = 20.35451594678 |  erot = 16.4936833355868 | epot = -70.4126501016344 | etot = -33.5644508192675
841000  ekin = 20.7164052655917 |  erot = 16.5482469292093 | epot = -70.8291030164493 | etot = -33.5644508216483
842000  ekin = 21.0443277185809 |  erot = 16.5552492673365 | epot = -71.164027809572 | etot = -33.5644508236547
843000  ekin = 21.3182343511285 |  erot = 16.5040987168917 | epot = -71.3867838932057 | etot = -33.5644508251855
844000  ekin = 21.5195641379185 |  erot = 16.389812863021 | epot = -71.4738278271024 | etot = -33.5644508261629
845000  ekin = 21.6321888578538 |  erot = 16.2134453031311 | epot = -71.4100849874943 | etot = -33.5644508265095
846000  ekin = 21.6437998341983 |  erot = 15.982020445398 | epot = -71.1902711057396 | etot = -33.5644508261433
847000  ekin = 21.5475782514495 |  erot = 15.7081282922939 | epot = -70.8201573687523 | etot = -33.5644508250088
848000  ekin = 21.3436927802104 |  erot = 15.4091281582984 | epot = -70.317271761652 | etot = -33.5644508231432
849000  ekin = 21.0400180684796 |  erot = 15.1057456403335 | epot = -69.7102145295219 | etot = -33.5644508207089
850000  ekin = 20.6516241482446 |  erot = 14.8199821306938 | epot = -69.0360570969252 | etot = -33.5644508179868
851000  ekin = 20.1989966774539 |  erot = 14.5725796465212 | epot = -68.3360271392886 | etot = -33.5644508153136
852000  ekin = 19.7054052288923 |  erot = 14.3805531716241 | epot = -67.650409213515 | etot = -33.5644508129985
853000  ekin = 19.194072466765 |  erot = 14.255308194241 | epot = -67.0138314722703 | etot = -33.5644508112643
854000  ekin = 18.6857524076445 |  erot = 14.2015963053779 | epot = -66.4517995232506 | etot = -33.5644508102282
855000  ekin = 18.197076380763 |  erot = 14.2172634351865 | epot = -65.97879062587 | etot = -33.5644508099204
856000  ekin = 17.739749977165 |  erot = 14.2936050986286 | epot = -65.5978058860847 | etot = -33.5644508102911
857000  ekin = 17.3205057847116 |  erot = 14.4162007447306 | epot = -65.3011573406644 | etot = -33.5644508112222
858000  ekin = 16.9416544342859 |  erot = 14.5662556925292 | epot = -65.072360939343 | etot = -33.5644508125279
859000  ekin = 16.6020780553325 |  erot = 14.7225727616506 | epot = -64.8891016309426 | etot = -33.5644508139595
860000  ekin = 16.2985125227677 |  erot = 14.864187954672 | epot = -64.7271512926665 | etot = -33.5644508152269
861000  ekin = 16.0269335830709 |  erot = 14.9734306283297 | epot = -64.5648150274588 | etot = -33.5644508160582
862000  ekin = 15.783814555912 |  erot = 15.0388248746444 | epot = -64.387090246818 | etot = -33.5644508162616
863000  ekin = 15.5670277467869 |  erot = 15.0570872003175 | epot = -64.1885657628876 | etot = -33.5644508157832
864000  ekin = 15.376244333099 |  erot = 15.0336449012388 | epot = -63.9743400490482 | etot = -33.5644508147104
865000  ekin = 15.2131876610794 |  erot = 14.9816007255058 | epot = -63.7592391997058 | etot = -33.5644508131206
866000  ekin = 15.0809818353137 |  erot = 14.9194629963886 | epot = -63.5648956431767 | etot = -33.5644508114743
867000  ekin = 14.982772656481 |  erot = 14.8683323226881 | epot = -63.4155557890386 | etot = -33.5644508098695
868000  ekin = 14.9218011304105 |  erot = 14.849329692569 | epot = -63.3355816314646 | etot = -33.5644508084851
869000  ekin = 14.9010185173891 |  erot = 14.8813222941232 | epot = -63.3467916189864 | etot = -33.5644508074742
870000  ekin = 14.9227801813764 |  erot = 14.9789108575852 | epot = -63.4661418459732 | etot = -33.5644508070115
871000  ekin = 14.9884139404329 |  erot = 15.1503817753002 | epot = -63.7032465230119 | etot = -33.5644508072788
872000  ekin = 15.0976914362528 |  erot = 15.395592356843 | epot = -64.0577346015415 | etot = -33.5644508084457
873000  ekin = 15.2480781426972 |  erot = 15.7042636367155 | epot = -64.5167925900199 | etot = -33.5644508106072
874000  ekin = 15.4340038910623 |  erot = 16.055356097571 | epot = -65.0538108022852 | etot = -33.5644508136518
875000  ekin = 15.6465534610118 |  erot = 16.4187317064576 | epot = -65.6297359846785 | etot = -33.5644508172092
876000  ekin = 15.8739222057082 |  erot = 16.7595446951977 | epot = -66.1979177216107 | etot = -33.5644508207048
877000  ekin = 16.102715583597 |  erot = 17.0444943512179 | epot = -66.7116607583677 | etot = -33.5644508235527
878000  ekin = 16.3197910497157 |  erot = 17.2478151771891 | epot = -67.1320570522651 | etot = -33.5644508253603
879000  ekin = 16.5138521437126 |  erot = 17.3548092266621 | epot = -67.4331121964723 | etot = -33.5644508260976
880000  ekin = 16.6772706664452 |  erot = 17.3624918784374 | epot = -67.6042133704663 | etot = -33.5644508255837
881000  ekin = 16.8080553835645 |  erot = 17.2784522498641 | epot = -67.6509584574645 | etot = -33.5644508240359
882000  ekin = 16.9100399144745 |  erot = 17.1190222549501 | epot = -67.5935129910547 | etot = -33.5644508216301
883000  ekin = 16.9925722002046 |  erot = 16.907341673294 | epot = -67.4643646922033 | etot = -33.5644508187047
884000  ekin = 17.0687034089466 |  erot = 16.6704808426556 | epot = -67.3036350673902 | etot = -33.564450815788
885000  ekin = 17.1519974213423 |  erot = 16.435237887842 | epot = -67.151686122645 | etot = -33.5644508134607
886000  ekin = 17.252939038997 |  erot = 16.2234313570374 | epot = -67.0408212081892 | etot = -33.5644508121549
887000  ekin = 17.3762921631827 |  erot = 16.0482363436572 | epot = -66.9889793188395 | etot = -33.5644508119996
888000  ekin = 17.5203620971906 |  erot = 15.912713025188 | epot = -66.997525935213 | etot = -33.5644508128343
889000  ekin = 17.678164445836 |  erot = 15.810590817443 | epot = -67.0532060776032 | etot = -33.5644508143242
890000  ekin = 17.8397117363174 |  erot = 15.7285450875524 | epot = -67.1327076393708 | etot = -33.5644508155009
891000  ekin = 17.9946822419192 |  erot = 15.6526652243105 | epot = -67.2117982839265 | etot = -33.5644508176969
892000  ekin = 18.133127418412 |  erot = 15.5631846639551 | epot = -67.2607629018187 | etot = -33.5644508194516
893000  ekin = 18.2472195011443 |  erot = 15.4391901326078 | epot = -67.2508604544024 | etot = -33.5644508206504
894000  ekin = 18.3321686691404 |  erot = 15.2648175370727 | epot = -67.1614370273886 | etot = -33.5644508211754
895000  ekin = 18.3862908840289 |  erot = 15.0310128873597 | epot = -66.9817545923519 | etot = -33.5644508209633
896000  ekin = 18.4109116241498 |  erot = 14.736684412896 | epot = -66.7120468570947 | etot = -33.5644508200489
897000  ekin = 18.4100490101784 |  erot = 14.3885926479125 | epot = -66.3630924766799 | etot = -33.5644508185889
898000  ekin = 18.3898281723142 |  erot = 13.9998000593438 | epot = -65.9540790484801 | etot = -33.5644508168221
899000  ekin = 18.3577139339212 |  erot = 13.5871378116592 | epot = -65.5093025605701 | etot = -33.5644508149897
900000  ekin = 18.3217786350839 |  erot = 13.1685630431042 | epot = -65.0547924914477 | etot = -33.5644508132596
901000  ekin = 18.2902589981617 |  erot = 12.7612484301775 | epot = -64.615958240019 | etot = -33.5644508116797
902000  ekin = 18.2715810746601 |  erot = 12.3808553827749 | epot = -64.2168872676126 | etot = -33.5644508101777
903000  ekin = 18.2748902611459 |  erot = 12.0419799132039 | epot = -63.8813209829476 | etot = -33.5644508085979
904000  ekin = 18.3109460834183 |  erot = 11.759427352809 | epot = -63.6348242429821 | etot = -33.5644508067548
905000  ekin = 18.3930925512049 |  erot = 11.5498594859641 | epot = -63.5074028416735 | etot = -33.5644508045045
906000  ekin = 18.5347341828844 |  erot = 11.4295673242426 | epot = -63.5287523121069 | etot = -33.5644508049799
907000  ekin = 18.7414362417238 |  erot = 11.4045037465369 | epot = -63.7103907926686 | etot = -33.564450804408
908000  ekin = 19.0194889666991 |  erot = 11.4807236767048 | epot = -64.064663448021 | etot = -33.5644508046171
909000  ekin = 19.3700614200685 |  erot = 11.6589605898556 | epot = -64.5934728156038 | etot = -33.5644508056796
910000  ekin = 19.7882105219671 |  erot = 11.9333322671022 | epot = -65.2859935963951 | etot = -33.5644508073258
911000  ekin = 20.264761840486 |  erot = 12.2921701407789 | epot = -66.1213827904065 | etot = -33.5644508091415
912000  ekin = 20.7894338924416 |  erot = 12.7195983431639 | epot = -67.0734830460848 | etot = -33.5644508104794
913000  ekin = 21.3541857295948 |  erot = 13.1939380993458 | epot = -68.1125746426603 | etot = -33.5644508137197
914000  ekin = 21.9410171490521 |  erot = 13.6876167630653 | epot = -69.1930847300272 | etot = -33.5644508179098
915000  ekin = 22.5188846292278 |  erot = 14.1693256874321 | epot = -70.2526611395172 | etot = -33.5644508228573
916000  ekin = 23.049549612354 |  erot = 14.6035757356931 | epot = -71.2175761768213 | etot = -33.5644508287743
917000  ekin = 23.4897289755665 |  erot = 14.9539952468668 | epot = -72.0081750557413 | etot = -33.564450833308
918000  ekin = 23.793918535748 |  erot = 15.1976473387309 | epot = -72.5560167585246 | etot = -33.5644508840457
919000  ekin = 23.6168046021527 |  erot = 15.3655091421618 | epot = -72.5467645863774 | etot = -33.5644508420629
920000  ekin = 23.1655316399932 |  erot = 15.5814764536651 | epot = -72.3114589045973 | etot = -33.5644508109391
921000  ekin = 22.856100972149 |  erot = 15.8041631323549 | epot = -72.22471496455 | etot = -33.5644508600461
922000  ekin = 22.4406172118071 |  erot = 15.7102388802612 | epot = -71.7153069303065 | etot = -33.5644508382383
923000  ekin = 21.8145072559683 |  erot = 15.4204628615237 | epot = -70.7994209477894 | etot = -33.5644508302974
924000  ekin = 21.0897106234295 |  erot = 15.1252102395354 | epot = -69.7793716823182 | etot = -33.5644508193534
925000  ekin = 20.3778961163799 |  erot = 14.8990596276467 | epot = -68.8414065523275 | etot = -33.5644508083009
926000  ekin = 19.7497733203944 |  erot = 14.7841436229448 | epot = -68.0983677488126 | etot = -33.5644508054734
927000  ekin = 19.2202389491362 |  erot = 14.8057849991618 | epot = -67.5904747508129 | etot = -33.5644508025149
928000  ekin = 18.809817838162 |  erot = 14.9862994247569 | epot = -67.3605680628714 | etot = -33.5644507999525
929000  ekin = 18.5263530331895 |  erot = 15.318951352198 | epot = -67.4097552028586 | etot = -33.5644508174711
930000  ekin = 18.3031582479747 |  erot = 15.7144845950848 | epot = -67.5820936712248 | etot = -33.5644508281653
931000  ekin = 18.0528353461388 |  erot = 16.0920981736367 | epot = -67.7093843566633 | etot = -33.5644508368877
932000  ekin = 17.7015072486793 |  erot = 16.3874716254131 | epot = -67.6534297153358 | etot = -33.5644508412434
933000  ekin = 17.2115757797185 |  erot = 16.5716045943672 | epot = -67.3476312129676 | etot = -33.5644508388819
934000  ekin = 16.5514003507612 |  erot = 16.6395832647279 | epot = -66.7554345173442 | etot = -33.5644509018551
935000  ekin = 15.4338979568673 |  erot = 16.4795974054523 | epot = -65.4779461956406 | etot = -33.564450833321
936000  ekin = 14.2992444575393 |  erot = 16.4524645816183 | epot = -64.3161598210581 | etot = -33.5644507819005
937000  ekin = 13.5948773759683 |  erot = 16.8307081669837 | epot = -63.9900363546499 | etot = -33.5644508116979
938000  ekin = 13.1600926698886 |  erot = 17.3617572819483 | epot = -64.086300824814 | etot = -33.5644508729772
939000  ekin = 12.6302856033418 |  erot = 17.6616475531265 | epot = -63.8563839460563 | etot = -33.564450789588
940000  ekin = 12.1844103614768 |  erot = 17.9750890514121 | epot = -63.7239502030055 | etot = -33.5644507901166
941000  ekin = 11.8736812719781 |  erot = 18.3544207992723 | epot = -63.7925528637158 | etot = -33.5644507924654
942000  ekin = 11.6856910033202 |  erot = 18.7737997121078 | epot = -64.02394151126 | etot = -33.564450795832
943000  ekin = 11.599371986545 |  erot = 19.1997647489791 | epot = -64.3635875349586 | etot = -33.5644507994345
944000  ekin = 11.5911163873662 |  erot = 19.5969000696482 | epot = -64.7524672596788 | etot = -33.5644508026644
945000  ekin = 11.639459485197 |  erot = 19.9326031121111 | epot = -65.1365134024359 | etot = -33.5644508051278
946000  ekin = 11.727829357545 |  erot = 20.1807232146655 | epot = -65.473003378822 | etot = -33.5644508066115
947000  ekin = 11.8456010829654 |  erot = 20.32415381595 | epot = -65.7342057059439 | etot = -33.5644508070284
948000  ekin = 11.9879925816098 |  erot = 20.3564923052578 | epot = -65.9089356932901 | etot = -33.5644508064226
949000  ekin = 12.1551997606782 |  erot = 20.2822909560426 | epot = -66.0019415217031 | etot = -33.5644508049823
950000  ekin = 12.3510408471748 |  erot = 20.1156596502327 | epot = -66.0311513004267 | etot = -33.5644508030192
951000  ekin = 12.581293022033 |  erot = 19.877315711536 | epot = -66.0230595344803 | etot = -33.5644508009113
952000  ekin = 12.8471183860029 |  erot = 19.5848426180813 | epot = -65.9964118056567 | etot = -33.5644508015725
953000  ekin = 13.1479143625003 |  erot = 19.2558560766444 | epot = -65.968221239027 | etot = -33.5644507998823
954000  ekin = 13.4859606869511 |  erot = 18.911661437843 | epot = -65.9620729235417 | etot = -33.5644507987476
955000  ekin = 13.8607396736833 |  erot = 18.5688221212713 | epot = -65.9940125931749 | etot = -33.5644507982203
956000  ekin = 14.2684790692809 |  erot = 18.2386767432418 | epot = -66.0716066107591 | etot = -33.5644507982364
957000  ekin = 14.7022261364776 |  erot = 17.9280212369674 | epot = -66.1946981721093 | etot = -33.5644507986643
958000  ekin = 15.1523556892697 |  erot = 17.6404102268294 | epot = -66.3572167154428 | etot = -33.5644507993437
959000  ekin = 15.6074014499971 |  erot = 17.3776019030293 | epot = -66.5494541531411 | etot = -33.5644508001146
960000  ekin = 16.055105518688 |  erot = 17.1408213792138 | epot = -66.7603776987158 | etot = -33.564450800814
961000  ekin = 16.483819507658 |  erot = 16.9315995389435 | epot = -66.9798698479736 | etot = -33.5644508013721
962000  ekin = 16.8831178333268 |  erot = 16.7524508246649 | epot = -67.2000194596927 | etot = -33.564450801701
963000  ekin = 17.2446402449705 |  erot = 16.6070593298282 | epot = -67.4161503765705 | etot = -33.5644508017719
964000  ekin = 17.562694426969 |  erot = 16.5001401028864 | epot = -67.6272853314561 | etot = -33.5644508016006
965000  ekin = 17.8343164211574 |  erot = 16.437096055473 | epot = -67.8358632778828 | etot = -33.5644508012524
966000  ekin = 18.0588818129987 |  erot = 16.4234839715664 | epot = -68.0468165853888 | etot = -33.5644508008237
967000  ekin = 18.2373393786012 |  erot = 16.4643418869725 | epot = -68.2661320660075 | etot = -33.5644508004337
968000  ekin = 18.371225361908 |  erot = 16.5634469328655 | epot = -68.4991230949743 | etot = -33.5644508002008
969000  ekin = 18.4616731980564 |  erot = 16.7225928937386 | epot = -68.7487168920116 | etot = -33.5644508002166
970000  ekin = 18.5086424309584 |  erot = 16.9409874485668 | epot = -69.0140806800671 | etot = -33.5644508005418
971000  ekin = 18.510521779479 |  erot = 17.2148322537451 | epot = -69.2898048344112 | etot = -33.5644508011872
972000  ekin = 18.4641879553248 |  erot = 17.5371342644598 | epot = -69.565773021906 | etot = -33.5644508021214
973000  ekin = 18.36549684716 |  erot = 17.8977436885489 | epot = -69.8276913389874 | etot = -33.5644508032786
974000  ekin = 18.210115477361 |  erot = 18.2835968795307 | epot = -70.0581631614598 | etot = -33.5644508045681
975000  ekin = 17.9945660753878 |  erot = 18.6791516170034 | epot = -70.2381684982725 | etot = -33.5644508058813
976000  ekin = 17.717330595489 |  erot = 19.0670257442499 | epot = -70.348807146843 | etot = -33.5644508071041
977000  ekin = 17.3798453872018 |  erot = 19.4288694049583 | epot = -70.3731656002806 | etot = -33.5644508081205
978000  ekin = 16.9872047396928 |  erot = 19.7465105830535 | epot = -70.2981661315694 | etot = -33.5644508088231
979000  ekin = 16.5484157402913 |  erot = 20.0034000158409 | epot = -70.1162665652494 | etot = -33.5644508091172
980000  ekin = 16.0760395350852 |  erot = 20.1863037000076 | epot = -69.8267940409756 | etot = -33.5644508058828
981000  ekin = 15.5958800010645 |  erot = 20.2892058858162 | epot = -69.4495366935261 | etot = -33.5644508066454
982000  ekin = 15.0884230005998 |  erot = 20.304291853781 | epot = -68.9571657047278 | etot = -33.564450850347
983000  ekin = 14.6278059766189 |  erot = 20.1974255270203 | epot = -68.389682311684 | etot = -33.5644508080448
984000  ekin = 14.4857181358561 |  erot = 20.0570073757821 | epot = -68.1071763823796 | etot = -33.5644508707414
985000  ekin = 14.2080885570342 |  erot = 19.919276456442 | epot = -67.6918158158907 | etot = -33.5644508024146
986000  ekin = 13.9758845586022 |  erot = 19.8429646568024 | epot = -67.3833000154326 | etot = -33.564450800028
987000  ekin = 13.8444880257332 |  erot = 19.8435555528961 | epot = -67.2524943857483 | etot = -33.564450807119
988000  ekin = 13.7899576469309 |  erot = 19.8765536875628 | epot = -67.2309621396011 | etot = -33.5644508051074
989000  ekin = 13.7826988309628 |  erot = 19.9896361075615 | epot = -67.3367857449526 | etot = -33.5644508064283
990000  ekin = 13.8064598478127 |  erot = 20.1866384414018 | epot = -67.5575490977623 | etot = -33.5644508085479
991000  ekin = 13.8444762700117 |  erot = 20.4553569309442 | epot = -67.8642840118231 | etot = -33.5644508108672
992000  ekin = 13.8831356968521 |  erot = 20.7777559738475 | epot = -68.2253424833743 | etot = -33.5644508126747
993000  ekin = 13.9170732196213 |  erot = 21.1354077297441 | epot = -68.6169317627858 | etot = -33.5644508134204
994000  ekin = 13.9526840143824 |  erot = 21.5142215161655 | epot = -69.0313563434496 | etot = -33.5644508129017
995000  ekin = 14.0087177223926 |  erot = 21.9069609846625 | epot = -69.4801295184473 | etot = -33.5644508113923
996000  ekin = 14.1134297223783 |  erot = 22.3130051188454 | epot = -69.9908856503854 | etot = -33.5644508091617
997000  ekin = 14.300019713644 |  erot = 22.7364207947175 | epot = -70.6008913152274 | etot = -33.5644508068659
998000  ekin = 14.6010980976067 |  erot = 23.1830420621534 | epot = -71.3485909647796 | etot = -33.5644508050196
999000  ekin = 15.0427313156878 |  erot = 23.657392544309 | epot = -72.2645746704757 | etot = -33.5644508104789
1000000  ekin = 15.6136601802992 |  erot = 24.1382004940024 | epot = -73.3163114877527 | etot = -33.5644508134512
   1000000   349.20396     -76.691733      3.3754211     -57.702651     -0.00024159977  39304000     
Loop time of 15.1653 on 4 procs for 1000000 steps with 16 atoms

Performance: 97.195 ns/day, 0.247 hours/ns, 65940.008 timesteps/s, 1.055 Matom-step/s
99.4% CPU use with 4 MPI tasks x no OpenMP threads

MPI task timing breakdown:
Section |  min time  |  avg time  |  max time  |%varavg| %total
---------------------------------------------------------------
Pair    | 5.3442     | 7.205      | 8.2928     |  45.2 | 47.51
Bond    | 0.23164    | 0.34855    | 0.44014    |  12.7 |  2.30
Neigh   | 0.00597    | 0.0060343  | 0.006083   |   0.1 |  0.04
Comm    | 4.5107     | 5.703      | 7.7713     |  53.7 | 37.61
Output  | 0.080356   | 0.088287   | 0.10786    |   3.8 |  0.58
Modify  | 0.54535    | 0.59431    | 0.65727    |   6.0 |  3.92
Other   |            | 1.22       |            |       |  8.05

Nlocal:              4 ave           4 max           4 min
Histogram: 4 0 0 0 0 0 0 0 0 0
Nghost:             12 ave          12 max          12 min
Histogram: 4 0 0 0 0 0 0 0 0 0
Neighs:          26.75 ave          47 max           9 min
Histogram: 1 1 0 0 0 0 0 1 0 1

Total # of neighbors = 107
Ave neighs/atom = 6.6875
Ave special neighs/atom = 3.75
Neighbor list builds = 1000
Dangerous builds = 0

write_data last_config.${number}.* nocoeff
write_data last_config.2.* nocoeff
System init for write_data ...
Generated 0 of 6 mixed pair_coeff terms from geometric mixing rule
#write_restart last_config.${number}.*
Total wall time: 0:00:15
