LAMMPS (2 Apr 2025)
# LAMMPS input file in real units via oxdna lj2real.py, date 2024-05-19
variable number	equal 2
variable ofreq	equal 1000
variable efreq	equal 1000
variable T      equal 300.0
variable rhos   equal 0.5

units real

dimension 3

newton on

boundary  p p p

atom_style hybrid bond ellipsoid oxdna
WARNING: Atom style hybrid defines both, per-type and per-atom masses; both must be set, but only per-atom masses will be used (../atom_vec_hybrid.cpp:132)
atom_modify sort 0 8.518

# Pair interactions require lists of neighbours to be calculated
neighbor 17.036 bin
neigh_modify every 1 delay 0 check yes

read_data data.duplex2
Reading data file ...
  orthogonal box = (-170 -170 -170) to (170 170 170)
  1 by 1 by 1 MPI processor grid
  reading atoms ...
  16 atoms
  reading velocities ...
  16 velocities
  scanning bonds ...
  1 = max bonds/atom
  16 ellipsoids
  orthogonal box = (-170 -170 -170) to (170 170 170)
  1 by 1 by 1 MPI processor grid
  reading bonds ...
  13 bonds
Finding 1-2 1-3 1-4 neighbors ...
  special bond factors lj:    0        0        0       
  special bond factors coul:  0        0        0       
     2 = max # of 1-2 neighbors
     2 = max # of 1-3 neighbors
     4 = max # of 1-4 neighbors
     6 = max # of special neighbors
  special bonds CPU = 0.000 seconds
  read_data CPU = 0.002 seconds

set atom * mass 315.8376
Setting atom values ...
  16 settings made for mass

group all type 1 4
16 atoms in group all

# oxRNA2 bond interactions - FENE backbone
bond_style oxrna2/fene
bond_coeff * 11.92337812042065 2.1295 6.482800913
special_bonds lj 0 1 1
Finding 1-2 1-3 1-4 neighbors ...
  special bond factors lj:    0        1        1       
  special bond factors coul:  0        0        0       
     2 = max # of 1-2 neighbors
     2 = max # of 1-3 neighbors
     4 = max # of 1-4 neighbors
     6 = max # of special neighbors
  special bonds CPU = 0.000 seconds

# oxRNA2 pair interactions
pair_style hybrid/overlay oxrna2/excv oxrna2/stk oxrna2/hbond oxrna2/xstk oxrna2/coaxstk oxrna2/dh
pair_coeff * * oxrna2/excv 11.92337812042065 5.9626 5.74965 11.92337812042065 4.38677 4.259 11.92337812042065 2.81094 2.72576
pair_coeff * * oxrna2/stk seqdep ${T} 8.35864576375849 0.005504556 0.70439070204273 3.66274 7.92174 2.9813 6.64404 0.9 0.0 0.95 0.9 0.0 0.95 1.3 0.0 0.8 1.3 0.0 0.8 2.0 0.65 2.0 0.65
pair_coeff * * oxrna2/stk seqdep 300 8.35864576375849 0.005504556 0.70439070204273 3.66274 7.92174 2.9813 6.64404 0.9 0.0 0.95 0.9 0.0 0.95 1.3 0.0 0.8 1.3 0.0 0.8 2.0 0.65 2.0 0.65
pair_coeff * * oxrna2/hbond seqdep 0.0 0.93918760272364 3.4072 6.3885 2.89612 5.9626 1.5 0.0 0.7 1.5 0.0 0.7 1.5 0.0 0.7 0.46 3.141592653589793 0.7 4.0 1.5707963267948966 0.45 4.0 1.5707963267948966 0.45
pair_coeff 1 4 oxrna2/hbond seqdep 5.18928666388042 0.93918760272364 3.4072 6.3885 2.89612 5.9626 1.5 0.0 0.7 1.5 0.0 0.7 1.5 0.0 0.7 0.46 3.141592653589793 0.7 4.0 1.5707963267948966 0.45 4.0 1.5707963267948966 0.45
pair_coeff 2 3 oxrna2/hbond seqdep 5.18928666388042 0.93918760272364 3.4072 6.3885 2.89612 5.9626 1.5 0.0 0.7 1.5 0.0 0.7 1.5 0.0 0.7 0.46 3.141592653589793 0.7 4.0 1.5707963267948966 0.45 4.0 1.5707963267948966 0.45
pair_coeff 3 4 oxrna2/hbond seqdep 5.18928666388042 0.93918760272364 3.4072 6.3885 2.89612 5.9626 1.5 0.0 0.7 1.5 0.0 0.7 1.5 0.0 0.7 0.46 3.141592653589793 0.7 4.0 1.5707963267948966 0.45 4.0 1.5707963267948966 0.45
pair_coeff * * oxrna2/xstk 4.92690859644113 4.259 5.1108 3.57756 4.94044 2.25 0.505 0.58 1.7 1.266 0.68 1.7 1.266 0.68 1.7 0.309 0.68 1.7 0.309 0.68
pair_coeff * * oxrna2/coaxstk 6.57330882442206 4.259 5.1108 3.57756 4.94044 2.0 2.592 0.65 1.3 0.151 0.8 0.9 0.685 0.95 0.9 0.685 0.95 2.0 -0.65 2.0 -0.65
pair_coeff * * oxrna2/dh ${T} ${rhos} 1.02455
pair_coeff * * oxrna2/dh 300 ${rhos} 1.02455
pair_coeff * * oxrna2/dh 300 0.5 1.02455

# NVE ensemble
fix 1 all nve/asphere
#fix 2 all langevin ${T} ${T} 4265.0 457145 angmom 10

timestep 0.01706

#comm_style tiled
fix 3 all balance 1000 1.03 shift xyz 10 1.03
comm_modify cutoff 32.4

compute quat all property/atom quatw quati quatj quatk

compute erot all erotate/asphere
compute ekin all ke
compute epot all pe
variable erot equal c_erot
variable ekin equal c_ekin
variable epot equal c_epot
variable etot equal c_erot+c_ekin+c_epot
fix 5 all print ${efreq} "$(step)  ekin = ${ekin} |  erot = ${erot} | epot = ${epot} | etot = ${etot}" screen yes
fix 5 all print 1000 "$(step)  ekin = ${ekin} |  erot = ${erot} | epot = ${epot} | etot = ${etot}" screen yes

dump out all custom ${ofreq} out.${number}.lammpstrj id mol type x y z ix iy iz vx vy vz c_quat[1] c_quat[2] c_quat[3] c_quat[4] angmomx angmomy angmomz
dump out all custom 1000 out.${number}.lammpstrj id mol type x y z ix iy iz vx vy vz c_quat[1] c_quat[2] c_quat[3] c_quat[4] angmomx angmomy angmomz
dump out all custom 1000 out.2.lammpstrj id mol type x y z ix iy iz vx vy vz c_quat[1] c_quat[2] c_quat[3] c_quat[4] angmomx angmomy angmomz
dump_modify out sort id
dump_modify out format line "%d %d %d  %22.15le %22.15le %22.15le  %d %d %d  %22.15le %22.15le %22.15le  %22.15le %22.15le %22.15le %22.15le  %22.15le %22.15le %22.15le"

run 1000000
Generated 0 of 6 mixed pair_coeff terms from geometric mixing rule
Neighbor list info ...
  update: every = 1 steps, delay = 0 steps, check = yes
  max neighbors/atom: 2000, page size: 100000
  master list distance cutoff = 36.640032
  ghost atom cutoff = 36.640032
  binsize = 18.320016, bins = 19 19 19
  5 neighbor lists, perpetual/occasional/extra = 5 0 0
  (1) pair oxrna2/excv, perpetual
      attributes: half, newton on
      pair build: half/bin/newton
      stencil: half/bin/3d
      bin: standard
  (2) pair oxrna2/hbond, perpetual, copy from (1)
      attributes: half, newton on
      pair build: copy
      stencil: none
      bin: none
  (3) pair oxrna2/xstk, perpetual, copy from (1)
      attributes: half, newton on
      pair build: copy
      stencil: none
      bin: none
  (4) pair oxrna2/coaxstk, perpetual, copy from (1)
      attributes: half, newton on
      pair build: copy
      stencil: none
      bin: none
  (5) pair oxrna2/dh, perpetual, copy from (1)
      attributes: half, newton on
      pair build: copy
      stencil: none
      bin: none
WARNING: Communication cutoff adjusted to 36.640032409886274 (../comm.cpp:753)
0  ekin = 16.1203242878408 |  erot = 16.6982509426318 | epot = -66.3830249260541 | etot = -33.5644496955815
Per MPI rank memory allocation (min/avg/max) = 7.655 | 7.655 | 7.655 Mbytes
   Step          Temp          E_pair         E_mol          TotEng         Press          Volume    
         0   360.53565     -69.627742      3.2447172     -50.262701      0.034084814    39304000     
1000  ekin = 16.3558183649387 |  erot = 16.6323090455317 | epot = -66.5525771041996 | etot = -33.5644496937292
2000  ekin = 16.6191649168148 |  erot = 16.5684372137643 | epot = -66.7520518221218 | etot = -33.5644496915427
3000  ekin = 16.9230904408655 |  erot = 16.5204480451833 | epot = -67.0079881759689 | etot = -33.5644496899201
4000  ekin = 17.2772162612592 |  erot = 16.4986792932201 | epot = -67.3403452437718 | etot = -33.5644496892925
5000  ekin = 17.6866959075726 |  erot = 16.5050138456573 | epot = -67.7561594428212 | etot = -33.5644496895913
6000  ekin = 18.1531343302965 |  erot = 16.5325161302816 | epot = -68.2501001506517 | etot = -33.5644496900737
7000  ekin = 18.6806534933141 |  erot = 16.5738535187236 | epot = -68.818956701435 | etot = -33.5644496893973
8000  ekin = 19.2766528199697 |  erot = 16.626151587963 | epot = -69.4672540969562 | etot = -33.5644496890235
9000  ekin = 19.946149039732 |  erot = 16.690847598574 | epot = -70.2014463262319 | etot = -33.5644496879258
10000  ekin = 20.6973181248475 |  erot = 16.777296043853 | epot = -71.0390638548549 | etot = -33.5644496861544
11000  ekin = 21.539522624792 |  erot = 16.9014209971991 | epot = -72.0053933083058 | etot = -33.5644496863147
12000  ekin = 22.4717498465051 |  erot = 17.0791755563663 | epot = -73.1153750880495 | etot = -33.5644496851781
13000  ekin = 23.4936216099469 |  erot = 17.3228520870333 | epot = -74.3809233816826 | etot = -33.5644496847024
14000  ekin = 24.6044210071244 |  erot = 17.6425688028837 | epot = -75.8114394947878 | etot = -33.5644496847797
15000  ekin = 25.7999389267743 |  erot = 18.0453525578634 | epot = -77.4097411694879 | etot = -33.5644496848502
16000  ekin = 27.0739775537121 |  erot = 18.5361142332912 | epot = -79.1745414730754 | etot = -33.5644496860721
17000  ekin = 28.4119581304115 |  erot = 19.1137262760959 | epot = -81.0901340949618 | etot = -33.5644496884543
18000  ekin = 29.79095451833 |  erot = 19.7704759932756 | epot = -83.1258802031768 | etot = -33.5644496915712
19000  ekin = 31.1831510307729 |  erot = 20.4915974540497 | epot = -85.239198180559 | etot = -33.5644496957364
20000  ekin = 32.5560965367939 |  erot = 21.2528351748736 | epot = -87.3733814125709 | etot = -33.5644497009034
21000  ekin = 33.8683309875656 |  erot = 22.0156446407479 | epot = -89.4484253379439 | etot = -33.5644497096304
22000  ekin = 35.0747510230853 |  erot = 22.7306302808715 | epot = -91.3698310187497 | etot = -33.5644497147929
23000  ekin = 36.1427935644222 |  erot = 23.3543658008639 | epot = -93.0616090845408 | etot = -33.5644497192547
24000  ekin = 37.0484240543205 |  erot = 23.8536351256844 | epot = -94.4665089004146 | etot = -33.5644497204096
25000  ekin = 37.7873483857421 |  erot = 24.2156130941784 | epot = -95.5674111990484 | etot = -33.564449719128
26000  ekin = 38.3695951222892 |  erot = 24.4472028227114 | epot = -96.3812476612824 | etot = -33.5644497162818
27000  ekin = 38.8142451991138 |  erot = 24.5696496438686 | epot = -96.9483445558075 | etot = -33.5644497128251
28000  ekin = 39.1436511594773 |  erot = 24.6108705414918 | epot = -97.3189714104574 | etot = -33.5644497094883
29000  ekin = 39.3799077053082 |  erot = 24.5987493007993 | epot = -97.5431067127115 | etot = -33.564449706604
30000  ekin = 39.5437187767917 |  erot = 24.5572061990996 | epot = -97.6653746802845 | etot = -33.5644497043931
31000  ekin = 39.6556538792215 |  erot = 24.5025482878265 | epot = -97.7226518696586 | etot = -33.5644497026105
32000  ekin = 39.7376908979135 |  erot = 24.4447365565308 | epot = -97.7468771552203 | etot = -33.5644497007759
33000  ekin = 39.8178410436029 |  erot = 24.3917276701354 | epot = -97.7740184125889 | etot = -33.5644496988505
34000  ekin = 39.9276187144874 |  erot = 24.3494773308432 | epot = -97.8415457422143 | etot = -33.5644496968838
35000  ekin = 40.0972017271433 |  erot = 24.3220925820247 | epot = -97.9837440042527 | etot = -33.5644496950847
36000  ekin = 40.3554758289769 |  erot = 24.3121132861373 | epot = -98.2320388089548 | etot = -33.5644496938406
37000  ekin = 40.7253172241838 |  erot = 24.3194531164613 | epot = -98.609220034252 | etot = -33.5644496936069
38000  ekin = 41.2184614577319 |  erot = 24.3399425111012 | epot = -99.1228536635587 | etot = -33.5644496947257
39000  ekin = 41.8315835745713 |  erot = 24.3642621379414 | epot = -99.7602954097945 | etot = -33.5644496972818
40000  ekin = 42.5444333388252 |  erot = 24.3777906096205 | epot = -100.486673649664 | etot = -33.5644497012182
41000  ekin = 43.322153438611 |  erot = 24.3619359806994 | epot = -101.248539124817 | etot = -33.5644497055064
42000  ekin = 44.1232219530969 |  erot = 24.2968159627012 | epot = -101.984487625366 | etot = -33.5644497095678
43000  ekin = 44.9043008441339 |  erot = 24.1647850477433 | epot = -102.633535604782 | etot = -33.5644497129044
44000  ekin = 45.6258073685754 |  erot = 23.9537754776348 | epot = -103.144032561027 | etot = -33.5644497148167
45000  ekin = 46.2557013508717 |  erot = 23.6596129163798 | epot = -103.479763983881 | etot = -33.5644497166295
46000  ekin = 46.7711396854559 |  erot = 23.2746461161522 | epot = -103.610235519168 | etot = -33.5644497175602
47000  ekin = 47.1576706465413 |  erot = 22.7983985986753 | epot = -103.520518961437 | etot = -33.5644497162201
48000  ekin = 47.4067411848224 |  erot = 22.2418927069107 | epot = -103.213083606729 | etot = -33.564449714996
49000  ekin = 47.5134307536668 |  erot = 21.6212608371935 | epot = -102.699141303774 | etot = -33.5644497129136
50000  ekin = 47.4750496002026 |  erot = 20.9637753825418 | epot = -102.003274691404 | etot = -33.5644497086592
51000  ekin = 47.2893433305648 |  erot = 20.3140174296337 | epot = -101.167810469161 | etot = -33.5644497089624
52000  ekin = 46.9527474071892 |  erot = 19.6808685522304 | epot = -100.198065668179 | etot = -33.5644497087595
53000  ekin = 46.4669221029443 |  erot = 19.062863496213 | epot = -99.0942353064255 | etot = -33.5644497072682
54000  ekin = 45.8347987943734 |  erot = 18.475279459683 | epot = -97.8745279599052 | etot = -33.5644497058487
55000  ekin = 45.0590316628631 |  erot = 17.9341671577876 | epot = -96.5576485255772 | etot = -33.5644497049264
56000  ekin = 44.1409291390452 |  erot = 17.4520797326573 | epot = -95.1574585762243 | etot = -33.5644497045218
57000  ekin = 43.0792908324211 |  erot = 17.0373342694522 | epot = -93.6810748066118 | etot = -33.5644497047385
58000  ekin = 41.8704923540596 |  erot = 16.6939394056074 | epot = -92.1288814650808 | etot = -33.5644497054139
59000  ekin = 40.5509408803221 |  erot = 16.4316140927959 | epot = -90.547004665748 | etot = -33.56444969263
60000  ekin = 39.197583061266 |  erot = 16.2583411314113 | epot = -89.0203738856258 | etot = -33.5644496929485
61000  ekin = 35.7114984384201 |  erot = 15.7928074869521 | epot = -85.0687559055426 | etot = -33.5644499801704
62000  ekin = 34.7372517507029 |  erot = 15.8094409096042 | epot = -84.1111427028043 | etot = -33.5644500424972
63000  ekin = 35.8178089566985 |  erot = 16.1653492511928 | epot = -85.5476088513051 | etot = -33.5644506434138
64000  ekin = 34.8692363703948 |  erot = 16.1670101597173 | epot = -84.6006971860837 | etot = -33.5644506559716
65000  ekin = 33.8464494555439 |  erot = 16.1402632189652 | epot = -83.551163329346 | etot = -33.5644506548368
66000  ekin = 32.7636419796965 |  erot = 16.0751240440808 | epot = -82.4032166770511 | etot = -33.5644506532738
67000  ekin = 31.6420680628883 |  erot = 15.9705642956735 | epot = -81.1770830093362 | etot = -33.5644506507744
68000  ekin = 30.5061166759957 |  erot = 15.8342590047115 | epot = -79.9048263284352 | etot = -33.564450647728
69000  ekin = 29.3793899831126 |  erot = 15.6784092891751 | epot = -78.6222499180456 | etot = -33.5644506457579
70000  ekin = 28.2842777970623 |  erot = 15.5192251789795 | epot = -77.3679536187082 | etot = -33.5644506426664
71000  ekin = 27.242800722312 |  erot = 15.3775924468391 | epot = -76.1848438089708 | etot = -33.5644506398197
72000  ekin = 26.2738583640474 |  erot = 15.273868212814 | epot = -75.1121772142972 | etot = -33.5644506374357
73000  ekin = 25.392926624332 |  erot = 15.2252389252996 | epot = -74.1826161852591 | etot = -33.5644506356276
74000  ekin = 24.6118800235889 |  erot = 15.2440811522979 | epot = -73.4204118109359 | etot = -33.5644506350491
75000  ekin = 23.9285421197348 |  erot = 15.2937064902859 | epot = -72.7866996078852 | etot = -33.5644509978644
76000  ekin = 23.6014258497325 |  erot = 14.5530249139078 | epot = -71.7189013877688 | etot = -33.5644506241286
77000  ekin = 24.0021186681949 |  erot = 14.6672556253486 | epot = -72.2338249119959 | etot = -33.5644506184525
78000  ekin = 23.7667117018423 |  erot = 14.8821032755372 | epot = -72.2132655967904 | etot = -33.5644506194109
79000  ekin = 23.6362408803404 |  erot = 15.1573231058538 | epot = -72.35801460699 | etot = -33.5644506207958
80000  ekin = 23.6008292998134 |  erot = 15.4801164769218 | epot = -72.6453963992437 | etot = -33.5644506225086
81000  ekin = 23.6479278988464 |  erot = 15.836678204521 | epot = -73.0490567276742 | etot = -33.5644506243068
82000  ekin = 23.7631958527395 |  erot = 16.2135577483178 | epot = -73.5412042271301 | etot = -33.5644506260728
83000  ekin = 23.9313380513058 |  erot = 16.5989137528015 | epot = -74.0947024318216 | etot = -33.5644506277143
84000  ekin = 24.140533746146 |  erot = 16.9832739889205 | epot = -74.6882583637839 | etot = -33.5644506287174
85000  ekin = 24.3851366362435 |  erot = 17.3594190811789 | epot = -75.3090063475316 | etot = -33.5644506301092
86000  ekin = 24.6499622429159 |  erot = 17.7229731863041 | epot = -75.937386060461 | etot = -33.5644506312409
87000  ekin = 24.9195866966152 |  erot = 18.0734917202546 | epot = -76.5575290489224 | etot = -33.5644506320526
88000  ekin = 25.1793742014117 |  erot = 18.4146339772105 | epot = -77.1584588111688 | etot = -33.5644506325466
89000  ekin = 25.4156568494626 |  erot = 18.7539686693875 | epot = -77.7340761514956 | etot = -33.5644506326455
90000  ekin = 25.6096840035667 |  erot = 19.1040901404653 | epot = -78.2782247770952 | etot = -33.5644506330632
91000  ekin = 25.7348417969795 |  erot = 19.4865010462232 | epot = -78.7857934757899 | etot = -33.5644506325872
92000  ekin = 25.7824117490231 |  erot = 19.9168308436434 | epot = -79.263693225771 | etot = -33.5644506331045
93000  ekin = 25.7436484203102 |  erot = 20.4015276208907 | epot = -79.7096266744445 | etot = -33.5644506332436
94000  ekin = 25.6107487399123 |  erot = 20.9498819611211 | epot = -80.1250813342069 | etot = -33.5644506331735
95000  ekin = 25.3788454256155 |  erot = 21.5718811146951 | epot = -80.5151771730794 | etot = -33.5644506327688
96000  ekin = 25.0476635684716 |  erot = 22.2778886106719 | epot = -80.8900028110683 | etot = -33.5644506319248
97000  ekin = 24.6228037012618 |  erot = 23.0785820232938 | epot = -81.2658363557874 | etot = -33.5644506312318
98000  ekin = 24.1163650303355 |  erot = 23.9802624556972 | epot = -81.6610781157416 | etot = -33.5644506297089
99000  ekin = 23.5467601995525 |  erot = 24.9897227937718 | epot = -82.1009336213294 | etot = -33.5644506280051
100000  ekin = 22.9377076830269 |  erot = 26.1125444287913 | epot = -82.6147027382471 | etot = -33.5644506264289
101000  ekin = 22.3162402354146 |  erot = 27.349527798676 | epot = -83.2302186594562 | etot = -33.5644506253656
102000  ekin = 21.7099673799581 |  erot = 28.69412898873 | epot = -83.9685469938764 | etot = -33.5644506251882
103000  ekin = 21.1440927333167 |  erot = 30.1304131051928 | epot = -84.8389564646021 | etot = -33.5644506260927
104000  ekin = 20.6390360732694 |  erot = 31.6318076720646 | epot = -85.8352943737406 | etot = -33.5644506284066
105000  ekin = 20.2097356178043 |  erot = 33.1559511277923 | epot = -86.9301373769575 | etot = -33.5644506313608
106000  ekin = 19.8659962936251 |  erot = 34.6591523175129 | epot = -88.0895992442155 | etot = -33.5644506330775
107000  ekin = 19.6196926152683 |  erot = 36.1003389899298 | epot = -89.2844822415637 | etot = -33.5644506363656
108000  ekin = 19.4737764770473 |  erot = 37.440465912306 | epot = -90.4786930287901 | etot = -33.5644506394368
109000  ekin = 19.4257211238031 |  erot = 38.6395727467613 | epot = -91.6297445157587 | etot = -33.5644506451943
110000  ekin = 19.4643317381228 |  erot = 39.6495422786817 | epot = -92.6783246653794 | etot = -33.5644506485749
111000  ekin = 19.5812097010505 |  erot = 40.4340503208697 | epot = -93.5797106732617 | etot = -33.5644506513414
112000  ekin = 19.7688752467955 |  erot = 40.9641614008038 | epot = -94.2974873012478 | etot = -33.5644506536484
113000  ekin = 20.0199352606474 |  erot = 41.2235617686416 | epot = -94.8079476827698 | etot = -33.5644506534809
114000  ekin = 20.3316783135487 |  erot = 41.2208106095106 | epot = -95.1169395739203 | etot = -33.564450650861
115000  ekin = 20.709293485984 |  erot = 40.9902193450404 | epot = -95.2639634786019 | etot = -33.5644506475775
116000  ekin = 21.1584070130083 |  erot = 40.5711692188957 | epot = -95.2940268781032 | etot = -33.5644506461991
117000  ekin = 21.6717401642311 |  erot = 40.0068194492267 | epot = -95.2430102574725 | etot = -33.5644506440147
118000  ekin = 22.2304498749709 |  erot = 39.3449170917046 | epot = -95.1398176087331 | etot = -33.5644506420575
119000  ekin = 22.8040322747542 |  erot = 38.6279078104824 | epot = -94.9963907285544 | etot = -33.5644506433179
120000  ekin = 23.3636455910814 |  erot = 37.8733163419384 | epot = -94.8014125775832 | etot = -33.5644506445634
121000  ekin = 23.8883342479594 |  erot = 37.0853024873756 | epot = -94.5380873807862 | etot = -33.5644506454512
122000  ekin = 24.3628295450755 |  erot = 36.261752125417 | epot = -94.1890323184787 | etot = -33.5644506479861
123000  ekin = 24.7728939422998 |  erot = 35.38964416418 | epot = -93.7269887541646 | etot = -33.5644506476848
124000  ekin = 25.1206142173523 |  erot = 34.4655545655676 | epot = -93.150619428482 | etot = -33.5644506455621
125000  ekin = 25.4216604350114 |  erot = 33.5035163209356 | epot = -92.4896273979246 | etot = -33.5644506419776
126000  ekin = 25.6927735129509 |  erot = 32.5281184075535 | epot = -91.7853425611106 | etot = -33.5644506406062
127000  ekin = 25.9460883081188 |  erot = 31.5650113724838 | epot = -91.075550318165 | etot = -33.5644506375624
128000  ekin = 26.1993872383156 |  erot = 30.6366650539229 | epot = -90.4005029275305 | etot = -33.5644506352919
129000  ekin = 26.4652741313047 |  erot = 29.7610339508673 | epot = -89.7907587150973 | etot = -33.5644506329253
130000  ekin = 26.7486727551216 |  erot = 28.9506137583608 | epot = -89.2637371464452 | etot = -33.5644506329628
131000  ekin = 27.0469092029054 |  erot = 28.2034442942488 | epot = -88.8148041302839 | etot = -33.5644506331296
132000  ekin = 27.3542874865327 |  erot = 27.5160813886964 | epot = -88.4348195084699 | etot = -33.5644506332408
133000  ekin = 27.6627378161433 |  erot = 26.8888107912271 | epot = -88.115999240569 | etot = -33.5644506331986
134000  ekin = 27.9672923181973 |  erot = 26.3214524159607 | epot = -87.8531953671547 | etot = -33.5644506329967
135000  ekin = 28.2641150379093 |  erot = 25.8141340320088 | epot = -87.6426997025952 | etot = -33.5644506326771
136000  ekin = 28.55099781414 |  erot = 25.36731793221 | epot = -87.4827663786154 | etot = -33.5644506322654
137000  ekin = 28.8259159092223 |  erot = 24.9801644637628 | epot = -87.3705310053121 | etot = -33.5644506323269
138000  ekin = 29.0842610649353 |  erot = 24.6492546073926 | epot = -87.2979663044129 | etot = -33.564450632085
139000  ekin = 29.3272222877274 |  erot = 24.3700782380061 | epot = -87.2617511574313 | etot = -33.5644506316978
140000  ekin = 29.5579798491533 |  erot = 24.1376580585779 | epot = -87.2600885391661 | etot = -33.5644506314349
141000  ekin = 29.7799846346266 |  erot = 23.9462429930572 | epot = -87.2906782589364 | etot = -33.5644506312526
142000  ekin = 29.9959841884932 |  erot = 23.7899704636033 | epot = -87.3504052833025 | etot = -33.564450631206
143000  ekin = 30.2070349127801 |  erot = 23.6632996950652 | epot = -87.4347852391676 | etot = -33.5644506313223
144000  ekin = 30.411884002911 |  erot = 23.5613798569353 | epot = -87.5377144914388 | etot = -33.5644506315926
145000  ekin = 30.6068456872297 |  erot = 23.4803656669083 | epot = -87.6516619861202 | etot = -33.5644506319822
146000  ekin = 30.7861230778224 |  erot = 23.4176420010737 | epot = -87.7682157113366 | etot = -33.5644506324404
147000  ekin = 30.9424364770405 |  erot = 23.3719366394247 | epot = -87.8788237493783 | etot = -33.564450632913
148000  ekin = 31.0677916134934 |  erot = 23.3433216080156 | epot = -87.9755638548593 | etot = -33.5644506333503
149000  ekin = 31.1542520331564 |  erot = 23.3331254537145 | epot = -88.0518281205821 | etot = -33.5644506337112
150000  ekin = 31.1946418128205 |  erot = 23.3437996409529 | epot = -88.1028920877339 | etot = -33.5644506339605
151000  ekin = 31.1838063839353 |  erot = 23.378593622019 | epot = -88.1268506397974 | etot = -33.5644506338432
152000  ekin = 31.1202290278335 |  erot = 23.4412183836723 | epot = -88.1258980452481 | etot = -33.5644506337424
153000  ekin = 31.0032553217677 |  erot = 23.5372189789026 | epot = -88.1049249338492 | etot = -33.5644506331789
154000  ekin = 30.835455940679 |  erot = 23.6729952126963 | epot = -88.072901786298 | etot = -33.5644506329228
155000  ekin = 30.6186135870574 |  erot = 23.855100955766 | epot = -88.0381651751723 | etot = -33.5644506323488
156000  ekin = 30.3571457582639 |  erot = 24.0914721103753 | epot = -88.0130685002311 | etot = -33.5644506315919
157000  ekin = 30.05741085004 |  erot = 24.3907046676063 | epot = -88.0125661484839 | etot = -33.5644506308376
158000  ekin = 29.7256756923367 |  erot = 24.7625567196351 | epot = -88.0526830421799 | etot = -33.5644506302081
159000  ekin = 29.3667041507952 |  erot = 25.2124449846211 | epot = -88.1435997656332 | etot = -33.5644506302169
160000  ekin = 28.9829375848296 |  erot = 25.740618936125 | epot = -88.2880071520133 | etot = -33.5644506310588
161000  ekin = 28.5708031098667 |  erot = 26.344980863356 | epot = -88.4802346049527 | etot = -33.5644506317299
162000  ekin = 28.1278607476099 |  erot = 27.0188065006223 | epot = -88.7111178809891 | etot = -33.5644506327569
163000  ekin = 27.6515523776471 |  erot = 27.7508923428462 | epot = -88.9668953542117 | etot = -33.5644506337183
164000  ekin = 27.1398166575464 |  erot = 28.5265897115505 | epot = -89.2308570046169 | etot = -33.56445063552
165000  ekin = 26.5901801294124 |  erot = 29.3236809534469 | epot = -89.47831172013 | etot = -33.5644506372706
166000  ekin = 26.0027550423975 |  erot = 30.1148491025863 | epot = -89.6820547838302 | etot = -33.5644506388464
167000  ekin = 25.3815734826403 |  erot = 30.8714146428669 | epot = -89.8174387656369 | etot = -33.5644506401297
168000  ekin = 24.7338280126206 |  erot = 31.5656853660168 | epot = -89.8639640196508 | etot = -33.5644506410134
169000  ekin = 24.0691061638304 |  erot = 32.1733410341214 | epot = -89.8068978394129 | etot = -33.5644506414611
170000  ekin = 23.3986380903864 |  erot = 32.6761770397904 | epot = -89.6392657713686 | etot = -33.5644506411918
171000  ekin = 22.7350947047604 |  erot = 33.0649339609217 | epot = -89.3644793058844 | etot = -33.5644506402023
172000  ekin = 22.092759506439 |  erot = 33.3397459263031 | epot = -88.9969560711891 | etot = -33.564450638447
173000  ekin = 21.4881436133191 |  erot = 33.5098602953119 | epot = -88.5624545444269 | etot = -33.5644506357959
174000  ekin = 20.9424106184101 |  erot = 33.5950638981379 | epot = -88.1019251458256 | etot = -33.5644506292777
175000  ekin = 20.4887725385269 |  erot = 33.6332952588441 | epot = -87.6865184248783 | etot = -33.5644506275073
176000  ekin = 20.1459992745663 |  erot = 33.6413286939822 | epot = -87.3517785947198 | etot = -33.5644506261713
177000  ekin = 19.9273952403444 |  erot = 33.6264319072462 | epot = -87.1182777732131 | etot = -33.5644506256225
178000  ekin = 19.8405268115291 |  erot = 33.5862782738564 | epot = -86.9912557125098 | etot = -33.5644506271244
179000  ekin = 19.8828425829414 |  erot = 33.5043404166439 | epot = -86.9516336276465 | etot = -33.5644506280612
180000  ekin = 20.052488120625 |  erot = 33.3671042345419 | epot = -86.9840429849137 | etot = -33.5644506297468
181000  ekin = 20.341484129734 |  erot = 33.1581782006459 | epot = -87.0641129622489 | etot = -33.5644506318691
182000  ekin = 20.7352057198232 |  erot = 32.8612622822524 | epot = -87.1609186361465 | etot = -33.5644506340708
183000  ekin = 21.2137106223656 |  erot = 32.4647477949414 | epot = -87.2429090532109 | etot = -33.5644506359039
184000  ekin = 21.7537587720681 |  erot = 31.9655803613341 | epot = -87.2837897705966 | etot = -33.5644506371944
185000  ekin = 22.3286746031906 |  erot = 31.3708022039177 | epot = -87.2639274447996 | etot = -33.5644506376913
186000  ekin = 22.9115100132914 |  erot = 30.6990331536461 | epot = -87.1749938042616 | etot = -33.5644506373242
187000  ekin = 23.4775030152645 |  erot = 29.9792070479747 | epot = -87.021160699456 | etot = -33.5644506362168
188000  ekin = 24.0059463479976 |  erot = 29.2469949106376 | epot = -86.8173918933445 | etot = -33.5644506347094
189000  ekin = 24.4809955944251 |  erot = 28.5392131436687 | epot = -86.5846593713951 | etot = -33.5644506333013
190000  ekin = 24.8911658073148 |  erot = 27.887124984948 | epot = -86.3427414248021 | etot = -33.5644506325393
191000  ekin = 25.2275609419587 |  erot = 27.3101259966566 | epot = -86.1021375715901 | etot = -33.5644506329749
192000  ekin = 25.483101142681 |  erot = 26.8121375634363 | epot = -85.8596893403671 | etot = -33.5644506342498
193000  ekin = 25.2930335714852 |  erot = 26.6410891958569 | epot = -85.4985734034454 | etot = -33.5644506361033
194000  ekin = 25.035260161402 |  erot = 26.6525265483667 | epot = -85.2522373921934 | etot = -33.5644506824248
195000  ekin = 25.0363508840875 |  erot = 26.2378500699512 | epot = -84.838651623647 | etot = -33.5644506696083
196000  ekin = 24.9648942549714 |  erot = 25.78683024187 | epot = -84.3161751669028 | etot = -33.5644506700615
197000  ekin = 24.8200850732452 |  erot = 25.3002719383726 | epot = -83.6848076806222 | etot = -33.5644506690044
198000  ekin = 24.6172884588533 |  erot = 24.7762496503733 | epot = -82.9579887758217 | etot = -33.5644506665951
199000  ekin = 24.3770483830285 |  erot = 24.2259949153761 | epot = -82.1674939619443 | etot = -33.5644506635397
200000  ekin = 24.1224360020322 |  erot = 23.669182064082 | epot = -81.3560687261523 | etot = -33.5644506600381
201000  ekin = 23.8775516468482 |  erot = 23.1291743985694 | epot = -80.5711767022418 | etot = -33.5644506568242
202000  ekin = 23.6646103059745 |  erot = 22.6276096876238 | epot = -79.8566706478823 | etot = -33.564450654284
203000  ekin = 23.5017139925561 |  erot = 22.1809863327335 | epot = -79.2471509779027 | etot = -33.5644506526131
204000  ekin = 23.4012931943621 |  erot = 21.7992926193336 | epot = -78.7650364652126 | etot = -33.5644506515168
205000  ekin = 23.3698442687753 |  erot = 21.4883950765874 | epot = -78.4226899967151 | etot = -33.5644506513523
206000  ekin = 23.4080277663833 |  erot = 21.2503388252167 | epot = -78.2228172433666 | etot = -33.5644506517666
207000  ekin = 23.5106724244917 |  erot = 21.0828853352463 | epot = -78.1580084122779 | etot = -33.5644506525399
208000  ekin = 23.6683534180546 |  erot = 20.9827921925458 | epot = -78.2155962640732 | etot = -33.5644506534728
209000  ekin = 23.8319531636239 |  erot = 20.8686960092795 | epot = -78.2650998050258 | etot = -33.5644506321225
210000  ekin = 24.1634900876438 |  erot = 20.8246815259904 | epot = -78.5526222834813 | etot = -33.5644506698471
211000  ekin = 24.4545474929045 |  erot = 20.8320949387464 | epot = -78.851093093411 | etot = -33.56445066176
212000  ekin = 24.7210588846844 |  erot = 20.8889178093592 | epot = -79.1744273565325 | etot = -33.5644506624888
213000  ekin = 24.9762555918577 |  erot = 20.9956570670876 | epot = -79.5363633251178 | etot = -33.5644506661725
214000  ekin = 25.2054830046406 |  erot = 21.1345527593216 | epot = -79.9044864309869 | etot = -33.5644506670247
215000  ekin = 25.4055444850439 |  erot = 21.2948000239949 | epot = -80.2647951765828 | etot = -33.564450667544
216000  ekin = 25.577339555002 |  erot = 21.465946901781 | epot = -80.6077371248534 | etot = -33.5644506680704
217000  ekin = 25.7224226234018 |  erot = 21.6383314527693 | epot = -80.9252047446663 | etot = -33.5644506684952
218000  ekin = 25.845630714109 |  erot = 21.7996006617645 | epot = -81.2096820449064 | etot = -33.5644506690329
219000  ekin = 25.9524523541595 |  erot = 21.9358336225139 | epot = -81.4527366463115 | etot = -33.5644506696382
220000  ekin = 26.0480501371157 |  erot = 22.0331400323298 | epot = -81.6456408394084 | etot = -33.5644506699629
221000  ekin = 26.1377559921011 |  erot = 22.0801399062505 | epot = -81.782346568547 | etot = -33.5644506701954
222000  ekin = 26.2262421156922 |  erot = 22.0692633440608 | epot = -81.8599561297606 | etot = -33.5644506700076
223000  ekin = 26.3184403630146 |  erot = 21.9982474658133 | epot = -81.8811384982244 | etot = -33.5644506693965
224000  ekin = 26.4171271373404 |  erot = 21.8710288815775 | epot = -81.8526066880926 | etot = -33.5644506691747
225000  ekin = 26.5225389104607 |  erot = 21.6965423523167 | epot = -81.7835319309112 | etot = -33.5644506681338
226000  ekin = 26.7157923548671 |  erot = 21.311921443795 | epot = -81.5921644821754 | etot = -33.5644506835133
227000  ekin = 27.2484396437668 |  erot = 20.6374955149947 | epot = -81.4503858460532 | etot = -33.5644506872916
228000  ekin = 27.5078528971385 |  erot = 20.2748179574229 | epot = -81.3471215226767 | etot = -33.5644506681153
229000  ekin = 27.6312830550841 |  erot = 19.9858964954766 | epot = -81.1816302175451 | etot = -33.5644506669845
230000  ekin = 27.7676058404135 |  erot = 19.7189438600646 | epot = -81.0510003675249 | etot = -33.5644506670469
231000  ekin = 27.9171898995668 |  erot = 19.48511964323 | epot = -80.96676021085 | etot = -33.5644506680532
232000  ekin = 28.0758079094858 |  erot = 19.2892055600503 | epot = -80.9294641380252 | etot = -33.5644506684892
233000  ekin = 28.2354888581592 |  erot = 19.1284398309942 | epot = -80.9283793559245 | etot = -33.5644506667711
234000  ekin = 28.3953039485319 |  erot = 19.0132859353531 | epot = -80.9730405513582 | etot = -33.5644506674732
235000  ekin = 28.5569493494352 |  erot = 18.9585387746581 | epot = -81.079938792115 | etot = -33.5644506680217
236000  ekin = 28.7166448189447 |  erot = 18.9671002034044 | epot = -81.2481956904898 | etot = -33.5644506681407
237000  ekin = 28.8725023819581 |  erot = 19.0433381874455 | epot = -81.4802912373697 | etot = -33.5644506679661
238000  ekin = 29.0257746255789 |  erot = 19.1916941122155 | epot = -81.7819194053285 | etot = -33.564450667534
239000  ekin = 29.1795842186701 |  erot = 19.4168064167606 | epot = -82.1608413028788 | etot = -33.5644506674481
240000  ekin = 29.3337146101823 |  erot = 19.7090725309439 | epot = -82.6072378097691 | etot = -33.5644506686429
241000  ekin = 29.4868078966944 |  erot = 20.059635226797 | epot = -83.1108937927976 | etot = -33.5644506693062
242000  ekin = 29.6351003169294 |  erot = 20.4605457842747 | epot = -83.6600967716931 | etot = -33.5644506704891
243000  ekin = 29.8921802425104 |  erot = 20.6958964400238 | epot = -84.1525273495187 | etot = -33.5644506669845
244000  ekin = 30.2594419587612 |  erot = 20.9649617308389 | epot = -84.7888543939239 | etot = -33.5644507043238
245000  ekin = 30.307462032855 |  erot = 21.3089995007098 | epot = -85.1809122847609 | etot = -33.5644507511961
246000  ekin = 30.6998172933389 |  erot = 21.0861202554835 | epot = -85.3503880690382 | etot = -33.5644505202158
247000  ekin = 31.2652124059023 |  erot = 21.743359927173 | epot = -86.5730230769992 | etot = -33.5644507439239
248000  ekin = 31.2039013197073 |  erot = 22.3578318777965 | epot = -87.1261839419792 | etot = -33.5644507444754
249000  ekin = 31.0628965882679 |  erot = 22.9361503364668 | epot = -87.5634976683157 | etot = -33.564450743581
250000  ekin = 30.8544219835539 |  erot = 23.4738999845728 | epot = -87.8927727106464 | etot = -33.5644507425198
251000  ekin = 30.5979929542308 |  erot = 23.9732495372757 | epot = -88.1356932312891 | etot = -33.5644507397825
252000  ekin = 30.3186084933073 |  erot = 24.4470234327052 | epot = -88.3300826628342 | etot = -33.5644507368217
253000  ekin = 30.0416328683251 |  erot = 24.9117142614362 | epot = -88.5177978640071 | etot = -33.5644507342458
254000  ekin = 29.6651322242682 |  erot = 25.3352238224922 | epot = -88.5648072260487 | etot = -33.5644511792883
255000  ekin = 27.9972596304911 |  erot = 25.3436445664272 | epot = -86.905355013404 | etot = -33.5644508164858
256000  ekin = 27.448053650702 |  erot = 26.2038023387232 | epot = -87.2163067906945 | etot = -33.5644508012693
257000  ekin = 28.5107044680778 |  erot = 27.5793602338028 | epot = -89.6545158780733 | etot = -33.5644511761927
258000  ekin = 28.9485040029253 |  erot = 27.9141399631068 | epot = -90.4270947739574 | etot = -33.5644508079253
259000  ekin = 29.1923898091006 |  erot = 28.276033662824 | epot = -91.0328742825945 | etot = -33.56445081067
260000  ekin = 29.4420659507011 |  erot = 28.6795119902767 | epot = -91.6860287570581 | etot = -33.5644508160803
261000  ekin = 29.684503988379 |  erot = 29.1068404637144 | epot = -92.3557952702081 | etot = -33.5644508181147
262000  ekin = 29.8834680797593 |  erot = 29.5461970802934 | epot = -92.994115981425 | etot = -33.5644508213723
263000  ekin = 30.0159351907591 |  erot = 29.964909738083 | epot = -93.5452957538315 | etot = -33.5644508249894
264000  ekin = 30.0524877647195 |  erot = 30.3384906869245 | epot = -93.955429280178 | etot = -33.5644508285339
265000  ekin = 29.9659450397312 |  erot = 30.6431999052997 | epot = -94.1735957766864 | etot = -33.5644508316555
266000  ekin = 29.7355380957414 |  erot = 30.8554934502946 | epot = -94.1554823800708 | etot = -33.5644508340347
267000  ekin = 29.3502172531655 |  erot = 30.9531552650271 | epot = -93.8678233536524 | etot = -33.5644508354597
268000  ekin = 28.810921560032 |  erot = 30.9159121160482 | epot = -93.2912845119276 | etot = -33.5644508358474
269000  ekin = 28.1312299026225 |  erot = 30.7258800106439 | epot = -92.4215607498757 | etot = -33.5644508366092
270000  ekin = 27.3365120331485 |  erot = 30.3685462542836 | epot = -91.2695091419598 | etot = -33.5644508545277
271000  ekin = 26.4621552466639 |  erot = 29.8348321072763 | epot = -89.8614382055382 | etot = -33.5644508515981
272000  ekin = 25.5514537840905 |  erot = 29.1238715109348 | epot = -88.2397761425176 | etot = -33.5644508474923
273000  ekin = 24.6528090192875 |  erot = 28.24532916392 | epot = -86.4625890256404 | etot = -33.5644508424329
274000  ekin = 23.82123465026 |  erot = 27.2200000603019 | epot = -84.6056855414776 | etot = -33.5644508309157
275000  ekin = 22.9729777889551 |  erot = 26.0804823635485 | epot = -82.6179111120934 | etot = -33.5644509595898
276000  ekin = 22.0549791971267 |  erot = 24.8883860441484 | epot = -80.5078160553615 | etot = -33.5644508140864
277000  ekin = 22.2918454486871 |  erot = 23.6844629884775 | epot = -79.5407594439169 | etot = -33.5644510067522
278000  ekin = 22.2933944834715 |  erot = 22.3796695906361 | epot = -78.2375149019828 | etot = -33.5644508278752
279000  ekin = 22.3659748249983 |  erot = 21.1183819743939 | epot = -77.0488076287023 | etot = -33.5644508293101
280000  ekin = 22.5183002078613 |  erot = 19.9334324614286 | epot = -76.0161834966384 | etot = -33.5644508273485
281000  ekin = 22.7529481191422 |  erot = 18.8478601493331 | epot = -75.1652590940332 | etot = -33.5644508255579
282000  ekin = 23.07958791849 |  erot = 17.8776966475199 | epot = -74.521735387246 | etot = -33.564450821236
283000  ekin = 23.5210121271362 |  erot = 17.034532447656 | epot = -74.1199953957267 | etot = -33.5644508209345
284000  ekin = 24.0799247558988 |  erot = 16.3233784658841 | epot = -73.9677540517558 | etot = -33.564450829973
285000  ekin = 24.7785446246503 |  erot = 15.747824491365 | epot = -74.090819942231 | etot = -33.5644508262157
286000  ekin = 25.6368387345403 |  erot = 15.3047487827852 | epot = -74.5060383422532 | etot = -33.5644508249277
287000  ekin = 26.6214548224712 |  erot = 14.9922504829314 | epot = -75.1781561308979 | etot = -33.5644508254952
288000  ekin = 27.7267158888543 |  erot = 14.8012865017049 | epot = -76.0924532218295 | etot = -33.5644508312703
289000  ekin = 28.8920167227223 |  erot = 14.7169892845735 | epot = -77.1734568439364 | etot = -33.5644508366407
290000  ekin = 30.0553666648311 |  erot = 14.7251675417621 | epot = -78.3449850482554 | etot = -33.5644508416621
291000  ekin = 31.1595769632299 |  erot = 14.8119291202642 | epot = -79.535956929079 | etot = -33.5644508455849
292000  ekin = 32.1608216689717 |  erot = 14.9640713088896 | epot = -80.6893438261452 | etot = -33.5644508482839
293000  ekin = 33.0319319380079 |  erot = 15.1681739054518 | epot = -81.7645566935905 | etot = -33.5644508501308
294000  ekin = 33.7599421346882 |  erot = 15.4088106779855 | epot = -82.7332036642703 | etot = -33.5644508515966
295000  ekin = 34.3413485939625 |  erot = 15.6673943342386 | epot = -83.5731937811152 | etot = -33.5644508529141
296000  ekin = 34.7782829446698 |  erot = 15.92292104342 | epot = -84.2656548420837 | etot = -33.5644508539939
297000  ekin = 35.0767101392328 |  erot = 16.1546669536452 | epot = -84.7958279474688 | etot = -33.5644508545908
298000  ekin = 35.2457989813442 |  erot = 16.3457320030339 | epot = -85.15598183891 | etot = -33.564450854532
299000  ekin = 35.297006685517 |  erot = 16.4859983979508 | epot = -85.3474559373051 | etot = -33.5644508538374
300000  ekin = 35.2422237261638 |  erot = 16.5735941681628 | epot = -85.3802687469981 | etot = -33.5644508526715
301000  ekin = 35.0916597610792 |  erot = 16.6147820199789 | epot = -85.2708926322634 | etot = -33.5644508512053
302000  ekin = 34.8528128910579 |  erot = 16.6227287108372 | epot = -85.0399924514067 | etot = -33.5644508495116
303000  ekin = 34.5312597670638 |  erot = 16.6156181966383 | epot = -84.7113288113035 | etot = -33.5644508476015
304000  ekin = 34.1313674341511 |  erot = 16.6227567332256 | epot = -84.3185750111593 | etot = -33.5644508437826
305000  ekin = 33.6571822643582 |  erot = 16.6720234605623 | epot = -83.8936565670835 | etot = -33.5644508421629
306000  ekin = 33.1151986332237 |  erot = 16.7769746117195 | epot = -83.4566240858753 | etot = -33.5644508409321
307000  ekin = 32.5134330702989 |  erot = 16.9437629167848 | epot = -83.021646827401 | etot = -33.5644508403173
308000  ekin = 31.8601474906979 |  erot = 17.1694637372598 | epot = -82.5940620683895 | etot = -33.5644508404317
309000  ekin = 31.1628016434741 |  erot = 17.4420089824647 | epot = -82.1692614669024 | etot = -33.5644508409636
310000  ekin = 30.4284939703417 |  erot = 17.7430091431988 | epot = -81.7359539560318 | etot = -33.5644508424913
311000  ekin = 29.6636970637371 |  erot = 18.0450727084624 | epot = -81.2732206157441 | etot = -33.5644508435445
312000  ekin = 28.8763119838587 |  erot = 18.3211026916746 | epot = -80.7618655199287 | etot = -33.5644508443954
313000  ekin = 28.075731703237 |  erot = 18.5482322978902 | epot = -80.1884148456747 | etot = -33.5644508445475
314000  ekin = 27.2754576015431 |  erot = 18.7102692133389 | epot = -79.5501776586963 | etot = -33.5644508438144
315000  ekin = 26.4927512875743 |  erot = 18.8002978243678 | epot = -78.8574999542598 | etot = -33.5644508423177
316000  ekin = 25.7476825207343 |  erot = 18.8201859998765 | epot = -78.1323193609086 | etot = -33.5644508402977
317000  ekin = 25.0614905059033 |  erot = 18.7788964667518 | epot = -77.4048378106912 | etot = -33.5644508380361
318000  ekin = 24.4546904069454 |  erot = 18.6903703700813 | epot = -76.7095116128023 | etot = -33.5644508357756
319000  ekin = 23.9454326766904 |  erot = 18.5716676910399 | epot = -76.0815512013913 | etot = -33.564450833661
320000  ekin = 23.5484361619215 |  erot = 18.44173594421 | epot = -75.5546229378699 | etot = -33.5644508317384
321000  ekin = 23.2745454667048 |  erot = 18.3209670206413 | epot = -75.1599633173373 | etot = -33.5644508299912
322000  ekin = 23.1307065451338 |  erot = 18.2311244117322 | epot = -74.9262817853079 | etot = -33.5644508284419
323000  ekin = 23.1199305196431 |  erot = 18.1948729379368 | epot = -74.8792542848254 | etot = -33.5644508272455
324000  ekin = 23.2402241372446 |  erot = 18.2346442881153 | epot = -75.0393192521092 | etot = -33.5644508267493
325000  ekin = 23.4710021373366 |  erot = 18.366895695536 | epot = -75.4023486642164 | etot = -33.5644508313438
326000  ekin = 23.779545509119 |  erot = 18.5932769387479 | epot = -75.9372732824063 | etot = -33.5644508345394
327000  ekin = 24.1343713308998 |  erot = 18.9009306660119 | epot = -76.5997528364452 | etot = -33.5644508395334
328000  ekin = 24.4953646019641 |  erot = 19.261105595103 | epot = -77.3209210429207 | etot = -33.5644508458536
329000  ekin = 24.8184483225984 |  erot = 19.6309716495355 | epot = -78.0138708245589 | etot = -33.564450852425
330000  ekin = 25.0648153576463 |  erot = 19.9600875040278 | epot = -78.589353719173 | etot = -33.564450857499
331000  ekin = 25.2101383721169 |  erot = 20.2008919381789 | epot = -78.9754811706197 | etot = -33.5644508603239
332000  ekin = 25.2457706637873 |  erot = 20.3248269292098 | epot = -79.1350484526159 | etot = -33.5644508596189
333000  ekin = 25.1861890028508 |  erot = 20.3296166390213 | epot = -79.0802564974312 | etot = -33.5644508555591
334000  ekin = 25.0662190979376 |  erot = 20.2399843242286 | epot = -78.8706542713556 | etot = -33.5644508491894
335000  ekin = 24.933368333542 |  erot = 20.1009816218859 | epot = -78.5988007974155 | etot = -33.5644508419876
336000  ekin = 24.8381114574468 |  erot = 19.9670256544063 | epot = -78.3695879472048 | etot = -33.5644508353516
337000  ekin = 24.8247545150402 |  erot = 19.8908557635028 | epot = -78.2800611093514 | etot = -33.5644508308085
338000  ekin = 24.9246805341282 |  erot = 19.9088859975717 | epot = -78.3980173597009 | etot = -33.564450828001
339000  ekin = 25.1522743469177 |  erot = 20.0433658465574 | epot = -78.760091020844 | etot = -33.564450827369
340000  ekin = 25.5040328014074 |  erot = 20.3063243572516 | epot = -79.3748079873456 | etot = -33.5644508286866
341000  ekin = 25.9593882031981 |  erot = 20.6972938179454 | epot = -80.2211328526361 | etot = -33.5644508314926
342000  ekin = 26.4842114255083 |  erot = 21.2060406180886 | epot = -81.2547028789013 | etot = -33.5644508353044
343000  ekin = 27.0356929912684 |  erot = 21.8153279723407 | epot = -82.4154718031959 | etot = -33.5644508395867
344000  ekin = 27.5676973345066 |  erot = 22.5033872894491 | epot = -83.6355354677875 | etot = -33.5644508438318
345000  ekin = 28.0359749647082 |  erot = 23.2463366467648 | epot = -84.8467624591145 | etot = -33.5644508476415
346000  ekin = 28.4026013553109 |  erot = 24.0201112992128 | epot = -85.9871635052393 | etot = -33.5644508507155
347000  ekin = 28.6398915194727 |  erot = 24.8020103746198 | epot = -87.0063527467734 | etot = -33.564450852681
348000  ekin = 28.7326075377642 |  erot = 25.5714490942894 | epot = -87.8685074860396 | etot = -33.564450853986
349000  ekin = 28.6752584344159 |  erot = 26.3100180841375 | epot = -88.5497273730717 | etot = -33.5644508545184
350000  ekin = 28.4730637357172 |  erot = 27.0009502159049 | epot = -89.0384648061956 | etot = -33.5644508545736
351000  ekin = 28.1395378484526 |  erot = 27.6270646736967 | epot = -89.3310533768122 | etot = -33.5644508546629
352000  ekin = 27.692958073862 |  erot = 28.1676652362391 | epot = -89.4250741653576 | etot = -33.5644508552565
353000  ekin = 27.1526950366585 |  erot = 28.5958100264993 | epot = -89.3129559197217 | etot = -33.5644508565639
354000  ekin = 26.5365141387186 |  erot = 28.8781341172047 | epot = -88.9790991142288 | etot = -33.5644508583055
355000  ekin = 25.8598799836201 |  erot = 28.9793031097155 | epot = -88.4036339529299 | etot = -33.5644508595943
356000  ekin = 25.1375717946308 |  erot = 28.8722956885447 | epot = -87.5743183424821 | etot = -33.5644508593066
357000  ekin = 24.3868741548718 |  erot = 28.5495289601419 | epot = -86.5008539716949 | etot = -33.5644508566811
358000  ekin = 23.6300778926837 |  erot = 28.0297879776756 | epot = -85.2243167222172 | etot = -33.564450851858
359000  ekin = 22.8939201469132 |  erot = 27.3556770360124 | epot = -83.8140480288874 | etot = -33.5644508459617
360000  ekin = 22.2065780073062 |  erot = 26.583447966716 | epot = -82.3544768140594 | etot = -33.5644508400372
361000  ekin = 21.5986345635223 |  erot = 25.774465442709 | epot = -80.9375508371129 | etot = -33.5644508308816
362000  ekin = 21.1083260621137 |  erot = 24.9895078408515 | epot = -79.6622847318229 | etot = -33.5644508288577
363000  ekin = 20.7375100619897 |  erot = 24.2576398932916 | epot = -78.559600783478 | etot = -33.5644508281967
364000  ekin = 20.4760033679813 |  erot = 23.5946470164039 | epot = -77.6351012127797 | etot = -33.5644508283945
365000  ekin = 20.3079089893795 |  erot = 23.0095138965513 | epot = -76.8818737148941 | etot = -33.5644508289633
366000  ekin = 20.2147979336075 |  erot = 22.508371935779 | epot = -76.2876206988936 | etot = -33.5644508295071
367000  ekin = 20.1786185360491 |  erot = 22.097329701825 | epot = -75.8403990676987 | etot = -33.5644508298246
368000  ekin = 20.1837486799332 |  erot = 21.783527063526 | epot = -75.5317265733164 | etot = -33.5644508298572
369000  ekin = 20.2182310118412 |  erot = 21.5747388187648 | epot = -75.3574206602865 | etot = -33.5644508296805
370000  ekin = 20.2742556079217 |  erot = 21.4781104693887 | epot = -75.3168169068468 | etot = -33.5644508295364
371000  ekin = 20.3477066126601 |  erot = 21.498287639814 | epot = -75.4104450816137 | etot = -33.5644508291396
372000  ekin = 20.4391769085689 |  erot = 21.6370751258666 | epot = -75.6407028633446 | etot = -33.5644508289091
373000  ekin = 20.5523906694082 |  erot = 21.8921389377667 | epot = -76.0089804360625 | etot = -33.5644508288875
374000  ekin = 20.6947607298724 |  erot = 22.2561865203607 | epot = -76.5153980788956 | etot = -33.5644508286625
375000  ekin = 20.87343522897 |  erot = 22.7176361068485 | epot = -77.1555221653168 | etot = -33.5644508294983
376000  ekin = 21.0894935044733 |  erot = 23.2620769848926 | epot = -77.9160213199524 | etot = -33.5644508305865
377000  ekin = 21.3446674637089 |  erot = 23.8720082855454 | epot = -78.7811265807797 | etot = -33.5644508315254
378000  ekin = 21.642485422907 |  erot = 24.5275644040414 | epot = -79.7345006597958 | etot = -33.5644508328474
379000  ekin = 21.990621582097 |  erot = 25.2058289791605 | epot = -80.7609013955211 | etot = -33.5644508342635
380000  ekin = 22.3975872845 |  erot = 25.8799316875689 | epot = -81.8419698099357 | etot = -33.5644508378668
381000  ekin = 22.8474625364263 |  erot = 26.5196756829465 | epot = -82.9315890608085 | etot = -33.5644508414357
382000  ekin = 23.3214968284735 |  erot = 27.093586881469 | epot = -83.9795345552818 | etot = -33.5644508453392
383000  ekin = 23.7989486472736 |  erot = 27.5682880227174 | epot = -84.9316875191126 | etot = -33.5644508491216
384000  ekin = 24.2602946690522 |  erot = 27.9101784190859 | epot = -85.7349239404412 | etot = -33.564450852303
385000  ekin = 24.690970169453 |  erot = 28.0892515731154 | epot = -86.3446725966732 | etot = -33.5644508541049
386000  ekin = 25.0758089634126 |  erot = 28.081287278916 | epot = -86.7215471012221 | etot = -33.5644508588935
387000  ekin = 25.3886917944128 |  erot = 27.8683599139938 | epot = -86.8215025662715 | etot = -33.5644508578648
388000  ekin = 25.6321888108875 |  erot = 27.4567876604605 | epot = -86.6534273265944 | etot = -33.5644508552464
389000  ekin = 25.817300794542 |  erot = 26.8690369422284 | epot = -86.2507885888794 | etot = -33.5644508521089
390000  ekin = 25.9562629244207 |  erot = 26.1386991558753 | epot = -85.6594129284645 | etot = -33.5644508481685
391000  ekin = 26.0625510048085 |  erot = 25.3050096521394 | epot = -84.932011501459 | etot = -33.5644508445111
392000  ekin = 26.147727925842 |  erot = 24.407775407665 | epot = -84.1199541749314 | etot = -33.5644508414245
393000  ekin = 26.2207009126132 |  erot = 23.4862823971299 | epot = -83.2714341486619 | etot = -33.5644508389188
394000  ekin = 26.2880235523096 |  erot = 22.5776047858861 | epot = -82.4300791763011 | etot = -33.5644508381054
395000  ekin = 26.3461327830803 |  erot = 21.6992206105849 | epot = -81.6098042310606 | etot = -33.5644508373953
396000  ekin = 26.3925769143734 |  erot = 20.8648963380472 | epot = -80.8219240890061 | etot = -33.5644508365854
397000  ekin = 26.4280357589171 |  erot = 20.0875980485131 | epot = -80.0800846429875 | etot = -33.5644508355573
398000  ekin = 26.4568264160058 |  erot = 19.380574769758 | epot = -79.4018520200296 | etot = -33.5644508342658
399000  ekin = 26.4863910840514 |  erot = 18.757618380767 | epot = -78.8084602983057 | etot = -33.5644508334873
400000  ekin = 26.5240355653529 |  erot = 18.2309165845336 | epot = -78.3194029820387 | etot = -33.5644508321522
401000  ekin = 26.578551587463 |  erot = 17.8133011772439 | epot = -77.9563035960705 | etot = -33.5644508313637
402000  ekin = 26.6553316875057 |  erot = 17.5146324369792 | epot = -77.7344149562267 | etot = -33.5644508317419
403000  ekin = 26.7508441444851 |  erot = 17.3369800814149 | epot = -77.6522750598747 | etot = -33.5644508339746
404000  ekin = 26.8478899847552 |  erot = 17.270366440865 | epot = -77.6827072639226 | etot = -33.5644508383024
405000  ekin = 26.9136481514923 |  erot = 17.2906409832996 | epot = -77.768739979637 | etot = -33.5644508448451
406000  ekin = 26.9026743981682 |  erot = 17.3519919761032 | epot = -77.8191172252582 | etot = -33.5644508509867
407000  ekin = 26.7697793194111 |  erot = 17.4151352557787 | epot = -77.7493654299036 | etot = -33.5644508547139
408000  ekin = 26.4852107133668 |  erot = 17.4599310842794 | epot = -77.5095926523291 | etot = -33.564450854683
409000  ekin = 26.0447937749105 |  erot = 17.4897156365094 | epot = -77.0989602629336 | etot = -33.5644508515137
410000  ekin = 25.4686689667023 |  erot = 17.5253085997391 | epot = -76.5584284134392 | etot = -33.5644508469978
411000  ekin = 24.7901856106035 |  erot = 17.5925678631142 | epot = -75.9472043166896 | etot = -33.5644508429719
412000  ekin = 24.0429450724808 |  erot = 17.7112262983547 | epot = -75.3186222111812 | etot = -33.5644508403457
413000  ekin = 23.2530709444172 |  erot = 17.8904894597277 | epot = -74.7080112431785 | etot = -33.5644508390336
414000  ekin = 22.4380957572426 |  erot = 18.1309089878494 | epot = -74.1334555836321 | etot = -33.5644508385401
415000  ekin = 21.6095002975104 |  erot = 18.4284521143534 | epot = -73.6024032502326 | etot = -33.5644508383689
416000  ekin = 20.7759703156908 |  erot = 18.7780315270161 | epot = -73.1184526809043 | etot = -33.5644508381974
417000  ekin = 19.9459219946523 |  erot = 19.1754390642153 | epot = -72.6858118967436 | etot = -33.564450837876
418000  ekin = 19.1290603145938 |  erot = 19.6178812355495 | epot = -72.3113923874927 | etot = -33.5644508373494
419000  ekin = 18.3372411746893 |  erot = 20.1037315119734 | epot = -72.0054235232765 | etot = -33.5644508366138
420000  ekin = 17.5848708567352 |  erot = 20.6319495841259 | epot = -71.7812712765715 | etot = -33.5644508357104
421000  ekin = 16.8888669767252 |  erot = 21.2012508780119 | epot = -71.654568689489 | etot = -33.5644508347519
422000  ekin = 16.2680311854107 |  erot = 21.8088345390796 | epot = -71.6413165584468 | etot = -33.5644508339565
423000  ekin = 15.741642346692 |  erot = 22.4484657014717 | epot = -71.7545588818186 | etot = -33.5644508336549
424000  ekin = 15.3271568810781 |  erot = 23.1079611162225 | epot = -71.9995688315635 | etot = -33.5644508342629
425000  ekin = 15.0370245442885 |  erot = 23.7664993128618 | epot = -72.3679746933681 | etot = -33.5644508362179
426000  ekin = 14.8748792452811 |  erot = 24.3924933231589 | epot = -72.8318234082756 | etot = -33.5644508398355
427000  ekin = 14.8320398098734 |  erot = 24.9432466995843 | epot = -73.3397373544685 | etot = -33.5644508450108
428000  ekin = 14.8863924965526 |  erot = 25.3682827942097 | epot = -73.819126141616 | etot = -33.5644508508537
429000  ekin = 15.0062259694977 |  erot = 25.6182665544869 | epot = -74.1889433796275 | etot = -33.5644508556429
430000  ekin = 15.1595389321657 |  erot = 25.6590201133174 | epot = -74.383009903001 | etot = -33.5644508575178
431000  ekin = 15.3249133699314 |  erot = 25.4851984009053 | epot = -74.3745626264713 | etot = -33.5644508556346
432000  ekin = 15.4974987577359 |  erot = 25.1253113467052 | epot = -74.1872609552037 | etot = -33.5644508507626
433000  ekin = 15.6867402477227 |  erot = 24.6339851579952 | epot = -73.8851762504389 | etot = -33.5644508447211
434000  ekin = 15.9084789524943 |  erot = 24.0759117528605 | epot = -73.5488415445985 | etot = -33.5644508392437
435000  ekin = 16.176902205947 |  erot = 23.5103596607691 | epot = -73.2517127020109 | etot = -33.5644508352948
436000  ekin = 16.4997173059311 |  erot = 22.9822765166008 | epot = -73.0464446556529 | etot = -33.5644508331211
437000  ekin = 16.8769806267885 |  erot = 22.5199344326933 | epot = -72.9613658919083 | etot = -33.5644508324265
438000  ekin = 17.3021259571372 |  erot = 22.1372453982685 | epot = -73.0038221882226 | etot = -33.5644508328169
439000  ekin = 17.7637229039067 |  erot = 21.8373393625524 | epot = -73.1655131004052 | etot = -33.5644508339462
440000  ekin = 18.2471223979772 |  erot = 21.6157595595056 | epot = -73.4273327930376 | etot = -33.5644508355549
441000  ekin = 18.7357201395288 |  erot = 21.4628710845202 | epot = -73.7630420615307 | etot = -33.5644508374816
442000  ekin = 19.2118878212793 |  erot = 21.36545154209 | epot = -74.1417902029611 | etot = -33.5644508395918
443000  ekin = 19.6577318124823 |  erot = 21.3079015376701 | epot = -74.5300841919218 | etot = -33.5644508417693
444000  ekin = 20.0558238633426 |  erot = 21.2733344148579 | epot = -74.8936091220955 | etot = -33.564450843895
445000  ekin = 20.3899893912612 |  erot = 21.2445884062627 | epot = -75.1990286433565 | etot = -33.5644508458326
446000  ekin = 20.6461236044405 |  erot = 21.2052857367734 | epot = -75.4158601887253 | etot = -33.5644508475114
447000  ekin = 20.8131102287962 |  erot = 21.1405154512208 | epot = -75.5180765281167 | etot = -33.5644508480997
448000  ekin = 20.8836321565946 |  erot = 21.0415726580833 | epot = -75.4896556636899 | etot = -33.5644508490121
449000  ekin = 20.8549766397129 |  erot = 20.9006105485698 | epot = -75.3200380377288 | etot = -33.5644508494461
450000  ekin = 20.7289995989601 |  erot = 20.7094982244834 | epot = -75.0029486728153 | etot = -33.5644508493717
451000  ekin = 20.5121237021469 |  erot = 20.4634057687569 | epot = -74.5399803196747 | etot = -33.5644508487709
452000  ekin = 20.2152499008671 |  erot = 20.1611428754875 | epot = -73.940843623995 | etot = -33.5644508476404
453000  ekin = 19.8534700766046 |  erot = 19.8054562088619 | epot = -73.2233771314657 | etot = -33.5644508459992
454000  ekin = 19.4456214292496 |  erot = 19.4031472753835 | epot = -72.4132195485344 | etot = -33.5644508439013
455000  ekin = 19.0137205229051 |  erot = 18.9648723132279 | epot = -71.5430436775509 | etot = -33.5644508414178
456000  ekin = 18.5823093300586 |  erot = 18.504611986906 | epot = -70.6513721556334 | etot = -33.5644508386688
457000  ekin = 18.1775784950353 |  erot = 18.0385547552896 | epot = -69.7805840861855 | etot = -33.5644508358606
458000  ekin = 17.8262193053089 |  erot = 17.5834820270718 | epot = -68.9741521653515 | etot = -33.5644508329708
459000  ekin = 17.5544328315075 |  erot = 17.1574115033717 | epot = -68.2762951652385 | etot = -33.5644508303593
460000  ekin = 17.3857834993992 |  erot = 16.776988236446 | epot = -67.727222564095 | etot = -33.5644508282498
461000  ekin = 17.3389537757403 |  erot = 16.4559737247311 | epot = -67.3593783273397 | etot = -33.5644508268683
462000  ekin = 17.4254421541705 |  erot = 16.2041333991676 | epot = -67.1940263797346 | etot = -33.5644508263965
463000  ekin = 17.6475549838178 |  erot = 16.0264214063143 | epot = -67.2384272170746 | etot = -33.5644508269425
464000  ekin = 17.9971528391911 |  erot = 15.9226257283152 | epot = -67.4842293959993 | etot = -33.564450828493
465000  ekin = 18.4555654856141 |  erot = 15.8876205732459 | epot = -67.9076368897636 | etot = -33.5644508309036
466000  ekin = 18.9948338162834 |  erot = 15.9122553307581 | epot = -68.4715399809635 | etot = -33.5644508339221
467000  ekin = 19.5800987880856 |  erot = 15.9847161184353 | epot = -69.1292657437673 | etot = -33.5644508372464
468000  ekin = 20.1726645576566 |  erot = 16.0920334748163 | epot = -69.8291488730622 | etot = -33.5644508405893
469000  ekin = 20.7331520539384 |  erot = 16.2213910259774 | epot = -70.5189939236386 | etot = -33.5644508437228
470000  ekin = 21.2242791252089 |  erot = 16.3610502014944 | epot = -71.1497801731877 | etot = -33.5644508464845
471000  ekin = 21.6130740295187 |  erot = 16.5009517691726 | epot = -71.6784766474451 | etot = -33.5644508487539
472000  ekin = 21.8725913830562 |  erot = 16.6332178545766 | epot = -72.0702600880504 | etot = -33.5644508504176
473000  ekin = 21.9833185471686 |  erot = 16.7527436323451 | epot = -72.3005130308737 | etot = -33.5644508513599
474000  ekin = 21.9344099206248 |  erot = 16.8578720764588 | epot = -72.3567328485621 | etot = -33.5644508514784
475000  ekin = 21.7247480854274 |  erot = 16.9509439425726 | epot = -72.2401428787078 | etot = -33.5644508507078
476000  ekin = 21.3637036554423 |  erot = 17.0384540155216 | epot = -71.9666085200192 | etot = -33.5644508490553
477000  ekin = 20.8713853163177 |  erot = 17.1305938642334 | epot = -71.5664300271537 | etot = -33.5644508466026
478000  ekin = 20.278105615864 |  erot = 17.2401904855788 | epot = -71.082746945024 | etot = -33.5644508435812
479000  ekin = 19.6228148922569 |  erot = 17.38074170562 | epot = -70.5680074381788 | etot = -33.5644508403019
480000  ekin = 18.9501924819984 |  erot = 17.5641098022534 | epot = -70.0787531214561 | etot = -33.5644508372042
481000  ekin = 18.3063999207676 |  erot = 17.7978626898946 | epot = -69.6687134454527 | etot = -33.5644508347905
482000  ekin = 17.7338800308348 |  erot = 18.0826185785657 | epot = -69.3809494429412 | etot = -33.5644508335407
483000  ekin = 17.266133386938 |  erot = 18.4098565339608 | epot = -69.2404407546856 | etot = -33.5644508337868
484000  ekin = 16.9123469725906 |  erot = 18.5839236848543 | epot = -69.0607216150819 | etot = -33.564450957637
485000  ekin = 17.2473052117091 |  erot = 17.4463141949728 | epot = -68.2580700314048 | etot = -33.5644506247229
486000  ekin = 18.3155143092001 |  erot = 17.1832730976597 | epot = -69.0632384226087 | etot = -33.564451015749
487000  ekin = 18.1324826614474 |  erot = 17.2801627137541 | epot = -68.9770961533522 | etot = -33.5644507781507
488000  ekin = 18.0650666710493 |  erot = 17.4264266856898 | epot = -69.0559441347616 | etot = -33.5644507780225
489000  ekin = 18.1230207572206 |  erot = 17.6201369927432 | epot = -69.3076085290423 | etot = -33.5644507790785
490000  ekin = 18.2959502060697 |  erot = 17.855192436587 | epot = -69.7155934234335 | etot = -33.5644507807768
491000  ekin = 18.5602651980465 |  erot = 18.1239992625357 | epot = -70.2487152440395 | etot = -33.5644507834573
492000  ekin = 18.8855238699591 |  erot = 18.4159985148202 | epot = -70.8659731704498 | etot = -33.5644507856705
493000  ekin = 19.2395352566315 |  erot = 18.7282644792193 | epot = -71.5322505228149 | etot = -33.5644507869641
494000  ekin = 19.5921246701724 |  erot = 19.0689157919796 | epot = -72.2254912500676 | etot = -33.5644507879157
495000  ekin = 19.0728202095402 |  erot = 18.9158482410298 | epot = -71.5531189777555 | etot = -33.5644505271854
496000  ekin = 19.8797920564235 |  erot = 18.7380967908473 | epot = -72.1823393793744 | etot = -33.5644505321036
497000  ekin = 21.3129327566839 |  erot = 19.2208596910044 | epot = -74.0982428018712 | etot = -33.5644503541829
498000  ekin = 21.3264694811934 |  erot = 19.7980335585456 | epot = -74.6889533937045 | etot = -33.5644503539655
499000  ekin = 21.2778907742688 |  erot = 20.4793064457702 | epot = -75.3216475743214 | etot = -33.5644503542824
500000  ekin = 21.1661916283311 |  erot = 21.2581781223418 | epot = -75.9888201057839 | etot = -33.5644503551109
501000  ekin = 20.9926825375938 |  erot = 22.1178388255192 | epot = -76.6749717195705 | etot = -33.5644503564575
502000  ekin = 20.761060694165 |  erot = 23.0317414652792 | epot = -77.3572525175151 | etot = -33.5644503580708
503000  ekin = 20.4798770188471 |  erot = 23.9650377706789 | epot = -78.0093651496417 | etot = -33.5644503601157
504000  ekin = 20.154680771976 |  erot = 24.8789199645057 | epot = -78.5980510988556 | etot = -33.5644503623739
505000  ekin = 19.7897861052712 |  erot = 25.7326258923331 | epot = -79.0868623624195 | etot = -33.5644503648151
506000  ekin = 19.3875459003478 |  erot = 26.4882337370226 | epot = -79.4402300037203 | etot = -33.5644503663498
507000  ekin = 18.9527707503654 |  erot = 27.1161379584135 | epot = -79.6333590755986 | etot = -33.5644503668197
508000  ekin = 18.4930541127596 |  erot = 27.6003825990232 | epot = -79.6578870776828 | etot = -33.5644503659
509000  ekin = 18.0182547166192 |  erot = 27.941491109468 | epot = -79.5241961901783 | etot = -33.5644503640912
510000  ekin = 17.5239659446694 |  erot = 28.1499521522793 | epot = -79.2383684583044 | etot = -33.5644503613557
511000  ekin = 17.0202767588415 |  erot = 28.2490270330098 | epot = -78.833754149927 | etot = -33.5644503580757
512000  ekin = 16.524571800679 |  erot = 28.2698315419102 | epot = -78.3588536974569 | etot = -33.5644503548677
513000  ekin = 16.0539184296908 |  erot = 28.2435719405111 | epot = -77.8619407224251 | etot = -33.5644503522232
514000  ekin = 15.6229539751891 |  erot = 28.1963871950494 | epot = -77.383791520648 | etot = -33.5644503504096
515000  ekin = 15.2424792420639 |  erot = 28.1464443105301 | epot = -76.9533739021522 | etot = -33.5644503495581
516000  ekin = 14.9188926056816 |  erot = 28.1027540352175 | epot = -76.5860969903178 | etot = -33.5644503494187
517000  ekin = 14.6543809152169 |  erot = 28.0678237290294 | epot = -76.2866549940638 | etot = -33.5644503498174
518000  ekin = 14.4476572456074 |  erot = 28.0395642674892 | epot = -76.0516718635821 | etot = -33.5644503504855
519000  ekin = 14.295049043995 |  erot = 28.0138489408661 | epot = -75.8733483360111 | etot = -33.56445035115
520000  ekin = 14.1917488337341 |  erot = 27.9870813583448 | epot = -75.7432805436666 | etot = -33.5644503515877
521000  ekin = 14.132983051073 |  erot = 27.9581295478081 | epot = -75.6555629505663 | etot = -33.5644503516852
522000  ekin = 14.1002586403412 |  erot = 27.7732671763438 | epot = -75.4379761962749 | etot = -33.5644503795899
523000  ekin = 14.1969588160894 |  erot = 27.1027118579037 | epot = -74.8641209748508 | etot = -33.5644503008576
524000  ekin = 14.737840261579 |  erot = 26.6164089144049 | epot = -74.9186994724735 | etot = -33.5644502964896
525000  ekin = 15.5068672851821 |  erot = 26.5883544533138 | epot = -75.6596721108519 | etot = -33.564450372356
526000  ekin = 15.8574449977433 |  erot = 26.672495723793 | epot = -76.094391094168 | etot = -33.5644503726317
527000  ekin = 16.0112069682751 |  erot = 26.735509894949 | epot = -76.3111672365281 | etot = -33.564450373304
528000  ekin = 16.1641744091256 |  erot = 26.7947978811062 | epot = -76.5234226641583 | etot = -33.5644503739265
529000  ekin = 16.3159009761735 |  erot = 26.8380825380111 | epot = -76.7184338885044 | etot = -33.5644503743197
530000  ekin = 16.4667477211464 |  erot = 26.8553312025131 | epot = -76.8865292980769 | etot = -33.5644503744174
531000  ekin = 16.6177352356349 |  erot = 26.8400251085553 | epot = -77.0222107184519 | etot = -33.5644503742617
532000  ekin = 16.770215067744 |  erot = 26.7891084873166 | epot = -77.1237739289765 | etot = -33.5644503739158
533000  ekin = 16.9253640368546 |  erot = 26.7024973873145 | epot = -77.1923117976363 | etot = -33.5644503734671
534000  ekin = 17.0836447868183 |  erot = 26.5822176528924 | epot = -77.2303128127546 | etot = -33.5644503730439
535000  ekin = 17.2444487916893 |  erot = 26.4310079588893 | epot = -77.2399071233273 | etot = -33.5644503727486
536000  ekin = 17.406059105541 |  erot = 26.2510049057241 | epot = -77.2215143838782 | etot = -33.5644503726131
537000  ekin = 17.565899198326 |  erot = 26.0431264909217 | epot = -77.1734760618138 | etot = -33.564450372566
538000  ekin = 17.7209415438106 |  erot = 25.8074441218874 | epot = -77.0928360383222 | etot = -33.5644503726242
539000  ekin = 17.8681497080252 |  erot = 25.5433035299828 | epot = -76.9759036106662 | etot = -33.5644503726583
540000  ekin = 18.0048631564632 |  erot = 25.2502517039358 | epot = -76.819565233003 | etot = -33.564450372604
541000  ekin = 18.1290648270612 |  erot = 24.9288645878006 | epot = -76.6223797872866 | etot = -33.5644503724249
542000  ekin = 18.239516493791 |  erot = 24.5811691616526 | epot = -76.3851360275359 | etot = -33.5644503720924
543000  ekin = 18.3357700078939 |  erot = 24.2108468343253 | epot = -76.1110672138914 | etot = -33.5644503716722
544000  ekin = 18.4180615072857 |  erot = 23.8229131244784 | epot = -75.805425002944 | etot = -33.5644503711799
545000  ekin = 18.4870901298875 |  erot = 23.4236993424277 | epot = -75.4752398424753 | etot = -33.5644503701601
546000  ekin = 18.5436104707031 |  erot = 23.0232726204838 | epot = -75.1313334609527 | etot = -33.5644503697658
547000  ekin = 18.5881260727117 |  erot = 22.6282216102807 | epot = -74.7807980524875 | etot = -33.5644503694951
548000  ekin = 18.6206521538638 |  erot = 22.2431161970301 | epot = -74.4282187198578 | etot = -33.5644503689639
549000  ekin = 18.6395328551678 |  erot = 21.8731131587845 | epot = -74.0770963832813 | etot = -33.564450369329
550000  ekin = 18.6420012525229 |  erot = 21.5194517195898 | epot = -73.7259033420458 | etot = -33.564450369933
551000  ekin = 18.6249210291718 |  erot = 21.1784779028955 | epot = -73.3678493028007 | etot = -33.5644503707334
552000  ekin = 18.5841928767863 |  erot = 20.845227849585 | epot = -72.993871097973 | etot = -33.5644503716016
553000  ekin = 18.5152127056126 |  erot = 20.5148731368916 | epot = -72.594536214838 | etot = -33.5644503723338
554000  ekin = 18.4136816908868 |  erot = 20.1848933331857 | epot = -72.1630253967612 | etot = -33.5644503726887
555000  ekin = 18.276690640015 |  erot = 19.8574769327134 | epot = -71.6986179451792 | etot = -33.5644503724508
556000  ekin = 18.1040115047969 |  erot = 19.5406874736875 | epot = -71.2091493501808 | etot = -33.5644503716965
557000  ekin = 17.8992309646426 |  erot = 19.2497226288938 | epot = -70.7134039634757 | etot = -33.5644503699392
558000  ekin = 17.6705778373481 |  erot = 19.0080857254375 | epot = -70.2431139302677 | etot = -33.5644503674821
559000  ekin = 17.4315653926673 |  erot = 18.8444628124195 | epot = -69.8404785695758 | etot = -33.564450364489
560000  ekin = 17.2006230347662 |  erot = 18.7901643783614 | epot = -69.5552377744615 | etot = -33.5644503613339
561000  ekin = 16.9995569159394 |  erot = 18.8749610238534 | epot = -69.4389682982209 | etot = -33.5644503584281
562000  ekin = 16.8505251058696 |  erot = 19.1232120101477 | epot = -69.5381874723361 | etot = -33.5644503563188
563000  ekin = 16.7718160198472 |  erot = 19.549813733625 | epot = -69.8860801090397 | etot = -33.5644503555675
564000  ekin = 16.7730284252942 |  erot = 20.1561760613241 | epot = -70.4936548435656 | etot = -33.5644503569472
565000  ekin = 16.8503463816461 |  erot = 20.9261148983189 | epot = -71.3409116401178 | etot = -33.5644503601528
566000  ekin = 16.9881817952351 |  erot = 21.8252877510207 | epot = -72.377919911524 | etot = -33.5644503652681
567000  ekin = 17.1597730192371 |  erot = 22.8021750341502 | epot = -73.5263984252604 | etot = -33.5644503718731
568000  ekin = 17.3309908964294 |  erot = 23.7909429898775 | epot = -74.6863842656054 | etot = -33.5644503792985
569000  ekin = 17.4658946015618 |  erot = 24.7167318453408 | epot = -75.7470768335939 | etot = -33.5644503866913
570000  ekin = 17.5327796654797 |  erot = 25.5030724457176 | epot = -76.6003025042901 | etot = -33.5644503930928
571000  ekin = 17.5098280199032 |  erot = 26.0808668138218 | epot = -77.1551452312879 | etot = -33.564450397563
572000  ekin = 17.3896134296988 |  erot = 26.3976580233327 | epot = -77.3517218523882 | etot = -33.5644503993567
573000  ekin = 17.1817696519336 |  erot = 26.4252545064136 | epot = -77.1714745564725 | etot = -33.5644503981253
574000  ekin = 16.9132012154304 |  erot = 26.1636856782861 | epot = -76.6413372877731 | etot = -33.5644503940566
575000  ekin = 16.6253831479169 |  erot = 25.640183136223 | epot = -75.830016672052 | etot = -33.5644503879121
576000  ekin = 16.3805854486182 |  erot = 24.9437607564077 | epot = -74.8887965738333 | etot = -33.5644503688073
577000  ekin = 16.2309295887429 |  erot = 24.1552332192306 | epot = -73.9506131739715 | etot = -33.564450365998
578000  ekin = 16.2003426790813 |  erot = 23.2996785344048 | epot = -73.0644715775373 | etot = -33.5644503640512
579000  ekin = 16.2983938259357 |  erot = 22.4032685644588 | epot = -72.2661127536236 | etot = -33.5644503632291
580000  ekin = 16.5164282816497 |  erot = 21.4889399506286 | epot = -71.569818598003 | etot = -33.5644503657246
581000  ekin = 16.8294131728 |  erot = 20.5770732255033 | epot = -70.970936763875 | etot = -33.5644503655717
582000  ekin = 17.2014342864315 |  erot = 19.7085617424393 | epot = -70.4744463947224 | etot = -33.5644503658517
583000  ekin = 17.5894541377788 |  erot = 18.9251667747091 | epot = -70.0790712786027 | etot = -33.5644503661149
584000  ekin = 17.9521233669675 |  erot = 18.2657373646351 | epot = -69.7823110976973 | etot = -33.5644503660947
585000  ekin = 18.257701458279 |  erot = 17.7627566558895 | epot = -69.5849084798785 | etot = -33.5644503657099
586000  ekin = 18.4890373219134 |  erot = 17.4391816025823 | epot = -69.4926692894614 | etot = -33.5644503649656
587000  ekin = 18.6451700996132 |  erot = 17.3070654479393 | epot = -69.5166859114406 | etot = -33.5644503638881
588000  ekin = 18.7400423388179 |  erot = 17.3682960794566 | epot = -69.6727887808439 | etot = -33.5644503625694
589000  ekin = 18.7988289995724 |  erot = 17.6163757903535 | epot = -69.9796551512105 | etot = -33.5644503612845
590000  ekin = 18.8521852511971 |  erot = 18.0377077416526 | epot = -70.4543433533514 | etot = -33.5644503605016
591000  ekin = 18.933521673431 |  erot = 18.6145318737953 | epot = -71.1125039067053 | etot = -33.564450359479
592000  ekin = 19.0736372366957 |  erot = 19.3273958986687 | epot = -71.9654834957878 | etot = -33.5644503604234
593000  ekin = 19.2836835997573 |  erot = 20.1464047125061 | epot = -72.9945386750968 | etot = -33.5644503628334
594000  ekin = 19.5596584182032 |  erot = 21.0341232375408 | epot = -74.1582320221718 | etot = -33.5644503664279
595000  ekin = 19.8847224288382 |  erot = 21.9477887877115 | epot = -75.3969615872255 | etot = -33.5644503706758
596000  ekin = 20.2229995979501 |  erot = 22.832103248016 | epot = -76.6195532311569 | etot = -33.5644503851908
597000  ekin = 20.5134057746505 |  erot = 23.6125551261992 | epot = -77.6904112904094 | etot = -33.5644503895597
598000  ekin = 20.7238255186822 |  erot = 24.246675399 | epot = -78.5349513098862 | etot = -33.564450392204
599000  ekin = 20.8326105240729 |  erot = 24.7094660560843 | epot = -79.1065269730863 | etot = -33.5644503929292
600000  ekin = 20.8281928837078 |  erot = 24.9942677729277 | epot = -79.3869110485786 | etot = -33.5644503919431
601000  ekin = 20.7081769100906 |  erot = 25.1108515583047 | epot = -79.3834788581062 | etot = -33.5644503897109
602000  ekin = 20.4770754644301 |  erot = 25.0812117066443 | epot = -79.122737557865 | etot = -33.5644503867907
603000  ekin = 20.1436196145184 |  erot = 24.9343592773081 | epot = -78.6424292755061 | etot = -33.5644503836796
604000  ekin = 19.7184185866069 |  erot = 24.7015463494973 | epot = -77.9844153168244 | etot = -33.5644503807202
605000  ekin = 19.2123955084547 |  erot = 24.4128183907817 | epot = -77.1896642773196 | etot = -33.5644503780832
606000  ekin = 18.6360571567952 |  erot = 24.095129026947 | epot = -76.2956365595424 | etot = -33.5644503758002
607000  ekin = 17.9994317315185 |  erot = 23.7717793965215 | epot = -75.3356615018511 | etot = -33.5644503738111
608000  ekin = 17.3124228754891 |  erot = 23.4627525855623 | epot = -74.3396258330635 | etot = -33.5644503720121
609000  ekin = 16.5853412867276 |  erot = 23.1855122480845 | epot = -73.3353039051059 | etot = -33.5644503702938
610000  ekin = 15.8294285553058 |  erot = 22.9559130661305 | epot = -72.3497919900035 | etot = -33.5644503685672
611000  ekin = 15.0572484570363 |  erot = 22.7889597207683 | epot = -71.410658544587 | etot = -33.5644503667824
612000  ekin = 14.2829782526227 |  erot = 22.6991649598572 | epot = -70.546593577405 | etot = -33.564450364925
613000  ekin = 13.5233158609302 |  erot = 22.7018063033231 | epot = -69.789572526171 | etot = -33.5644503619176
614000  ekin = 12.7974443554902 |  erot = 22.8128628323052 | epot = -69.174757548136 | etot = -33.5644503603406
615000  ekin = 12.1222485230345 |  erot = 23.0409824259026 | epot = -68.7276813080121 | etot = -33.564450359075
616000  ekin = 11.5143476716453 |  erot = 23.3894333508477 | epot = -68.4682313810176 | etot = -33.5644503585246
617000  ekin = 10.9895105320768 |  erot = 23.852982064368 | epot = -68.406942955122 | etot = -33.5644503586772
618000  ekin = 10.5621427378668 |  erot = 24.4166592383602 | epot = -68.5432523360027 | etot = -33.5644503597758
619000  ekin = 10.2447233169234 |  erot = 25.0539361245437 | epot = -68.8631098033379 | etot = -33.5644503618707
620000  ekin = 10.0473729683185 |  erot = 25.7263958144564 | epot = -69.3382191475905 | etot = -33.5644503648156
621000  ekin = 9.97770919360039 |  erot = 26.3860294549082 | epot = -69.9281890167373 | etot = -33.5644503682287
622000  ekin = 10.0410058297016 |  erot = 26.9805251343517 | epot = -70.5859813355914 | etot = -33.5644503715381
623000  ekin = 10.2405907651647 |  erot = 27.4608678075509 | epot = -71.2659089468655 | etot = -33.5644503741499
624000  ekin = 10.5781077615883 |  erot = 27.789174960257 | epot = -71.9317330975498 | etot = -33.5644503757046
625000  ekin = 11.053479050515 |  erot = 27.9443540029642 | epot = -72.5622834295344 | etot = -33.5644503760553
626000  ekin = 11.6650239623642 |  erot = 27.9236660631711 | epot = -73.153140400983 | etot = -33.5644503754477
627000  ekin = 12.4090657092347 |  erot = 27.7401487507348 | epot = -73.7136648341905 | etot = -33.564450374221
628000  ekin = 13.2797303348473 |  erot = 27.4180442688489 | epot = -74.2622249764411 | etot = -33.5644503727449
629000  ekin = 14.2227247823339 |  erot = 26.9288523651752 | epot = -74.7160277938986 | etot = -33.5644506463895
630000  ekin = 14.637136966415 |  erot = 25.6849986218802 | epot = -73.8865860637917 | etot = -33.5644504754965
631000  ekin = 15.1932748248812 |  erot = 24.801529111745 | epot = -73.5592542937314 | etot = -33.5644503571052
632000  ekin = 16.5842231826205 |  erot = 25.1927867333637 | epot = -75.3414603995613 | etot = -33.5644504835771
633000  ekin = 18.1129981073571 |  erot = 25.8399990858457 | epot = -77.5174478436414 | etot = -33.5644506504385
634000  ekin = 19.1483265851543 |  erot = 25.7387528536643 | epot = -78.4515299886064 | etot = -33.5644505497879
635000  ekin = 20.1638306101821 |  erot = 25.6154971448762 | epot = -79.3437783090052 | etot = -33.5644505539469
636000  ekin = 21.1529452210536 |  erot = 25.4927802224867 | epot = -80.2101760025405 | etot = -33.5644505590001
637000  ekin = 22.0768404136897 |  erot = 25.3376757552783 | epot = -80.9789667327117 | etot = -33.5644505637437
638000  ekin = 22.8998086509354 |  erot = 25.1175243535508 | epot = -81.5817835714435 | etot = -33.5644505669573
639000  ekin = 23.5958452420157 |  erot = 24.8103240272146 | epot = -81.9706198372422 | etot = -33.5644505680119
640000  ekin = 24.1448393956942 |  erot = 24.4104070775425 | epot = -82.1196970413274 | etot = -33.5644505680906
641000  ekin = 24.5337741526856 |  erot = 23.9290519071284 | epot = -82.0272766245537 | etot = -33.5644505647397
642000  ekin = 24.7698696451025 |  erot = 23.3958020413888 | epot = -81.730122248181 | etot = -33.5644505616897
643000  ekin = 24.8669267985925 |  erot = 22.839282940792 | epot = -81.2706602981323 | etot = -33.5644505587478
644000  ekin = 24.8431155057201 |  erot = 22.2830723081379 | epot = -80.6906383701087 | etot = -33.5644505562508
645000  ekin = 24.719304698006 |  erot = 21.7428697625367 | epot = -80.0266250147422 | etot = -33.5644505541996
646000  ekin = 24.5180931828886 |  erot = 21.2270132548264 | epot = -79.3095569901817 | etot = -33.5644505524668
647000  ekin = 24.2628521132642 |  erot = 20.7388201342408 | epot = -78.5661227984873 | etot = -33.5644505509823
648000  ekin = 23.9761808139075 |  erot = 20.2787945270894 | epot = -77.8194258907957 | etot = -33.5644505497989
649000  ekin = 23.6778736553929 |  erot = 19.8458221791744 | epot = -77.0881463835775 | etot = -33.5644505490103
650000  ekin = 23.3831896140362 |  erot = 19.4375683303411 | epot = -76.3852084930038 | etot = -33.5644505486264
651000  ekin = 23.1045251393391 |  erot = 19.0455994385441 | epot = -75.7145751271692 | etot = -33.5644505492861
[...]
837000  ekin = 19.2754657678745 |  erot = 16.207438476594 | epot = -69.0473550560391 | etot = -33.5644508115706
838000  ekin = 19.6129197632876 |  erot = 16.3051003227349 | epot = -69.4824709000532 | etot = -33.5644508140307
839000  ekin = 19.979590491096 |  erot = 16.4066730020801 | epot = -69.9507143098511 | etot = -33.564450816675
840000  ekin = 20.354515945074 |  erot = 16.4936833382959 | epot = -70.4126501026541 | etot = -33.5644508192842
841000  ekin = 20.7164052643038 |  erot = 16.5482469306627 | epot = -70.8291030166311 | etot = -33.5644508216646
842000  ekin = 21.0443277176107 |  erot = 16.5552492673983 | epot = -71.1640278086798 | etot = -33.5644508236708
843000  ekin = 21.3182343503566 |  erot = 16.5040987155261 | epot = -71.3867838910838 | etot = -33.5644508252011
844000  ekin = 21.5195641372129 |  erot = 16.3898128602907 | epot = -71.4738278236818 | etot = -33.5644508261782
845000  ekin = 21.6321888570755 |  erot = 16.2134452991752 | epot = -71.4100849827744 | etot = -33.5644508265237
846000  ekin = 21.6437998332092 |  erot = 15.9820204404001 | epot = -71.1902710997656 | etot = -33.5644508261563
847000  ekin = 21.5475782501195 |  erot = 15.7081282864525 | epot = -70.8201573615942 | etot = -33.5644508250222
848000  ekin = 21.343692778426 |  erot = 15.4091281518098 | epot = -70.3172717533923 | etot = -33.5644508231565
849000  ekin = 21.0400180661662 |  erot = 15.1057456333737 | epot = -69.7102145202615 | etot = -33.5644508207216
850000  ekin = 20.6516241453695 |  erot = 14.8199821234238 | epot = -69.0360570867931 | etot = -33.5644508179998
851000  ekin = 20.1989966740282 |  erot = 14.5725796390911 | epot = -68.3360271284458 | etot = -33.5644508153266
852000  ekin = 19.7054052249611 |  erot = 14.3805531641851 | epot = -67.6504092021562 | etot = -33.56445081301
853000  ekin = 19.1940724624016 |  erot = 14.2553081869414 | epot = -67.0138314606181 | etot = -33.5644508112752
854000  ekin = 18.6857524029365 |  erot = 14.2015962983608 | epot = -66.451799511537 | etot = -33.5644508102398
855000  ekin = 18.1970763757978 |  erot = 14.2172634285837 | epot = -65.9787906143144 | etot = -33.564450809933
856000  ekin = 17.7397499720176 |  erot = 14.2936050925535 | epot = -65.5978058748738 | etot = -33.5644508103027
857000  ekin = 17.3205057794364 |  erot = 14.4162007392719 | epot = -65.3011573299426 | etot = -33.5644508112343
858000  ekin = 16.9416544289142 |  erot = 14.5662556877472 | epot = -65.072360929203 | etot = -33.5644508125416
859000  ekin = 16.6020780498748 |  erot = 14.7225727575796 | epot = -64.8891016214262 | etot = -33.5644508139718
860000  ekin = 16.298512517221 |  erot = 14.864187951327 | epot = -64.7271512837874 | etot = -33.5644508152394
861000  ekin = 16.0269335774274 |  erot = 14.9734306257187 | epot = -64.5648150192165 | etot = -33.5644508160704
862000  ekin = 15.7838145501692 |  erot = 15.0388248727807 | epot = -64.3870902392238 | etot = -33.564450816274
863000  ekin = 15.5670277409545 |  erot = 15.0570871992293 | epot = -64.1885657559804 | etot = -33.5644508157966
864000  ekin = 15.3762443272035 |  erot = 15.0336449009728 | epot = -63.9743400428992 | etot = -33.5644508147229
865000  ekin = 15.2131876551474 |  erot = 14.9816007261212 | epot = -63.759239194402 | etot = -33.5644508131333
866000  ekin = 15.080981829402 |  erot = 14.9194629979481 | epot = -63.5648956388377 | etot = -33.5644508114877
867000  ekin = 14.982772650662 |  erot = 14.8683323252375 | epot = -63.4155557857827 | etot = -33.5644508098832
868000  ekin = 14.9218011247652 |  erot = 14.8493296961104 | epot = -63.3355816293742 | etot = -33.5644508084985
869000  ekin = 14.9010185119988 |  erot = 14.8813222985795 | epot = -63.3467916180658 | etot = -33.5644508074874
870000  ekin = 14.9227801763119 |  erot = 14.978910862757 | epot = -63.4661418460939 | etot = -33.564450807025
871000  ekin = 14.9884139357409 |  erot = 15.1503817808113 | epot = -63.703246523846 | etot = -33.5644508072938
872000  ekin = 15.0976914319391 |  erot = 15.3955923621071 | epot = -64.0577346025082 | etot = -33.5644508084619
873000  ekin = 15.2480781387148 |  erot = 15.7042636409336 | epot = -64.5167925902714 | etot = -33.5644508106229
874000  ekin = 15.4340038873136 |  erot = 16.0553560997978 | epot = -65.0538108007788 | etot = -33.5644508136674
875000  ekin = 15.6465534573718 |  erot = 16.4187317057534 | epot = -65.6297359803502 | etot = -33.564450817225
876000  ekin = 15.8739222020682 |  erot = 16.7595446908408 | epot = -66.1979177136296 | etot = -33.5644508207206
877000  ekin = 16.1027155799107 |  erot = 17.0444943429086 | epot = -66.7116607463878 | etot = -33.5644508235686
878000  ekin = 16.3197910460246 |  erot = 17.2478151651517 | epot = -67.1320570365518 | etot = -33.5644508253755
879000  ekin = 16.5138521401689 |  erot = 17.3548092115902 | epot = -67.4331121778715 | etot = -33.5644508261124
880000  ekin = 16.6772706632032 |  erot = 17.3624918612936 | epot = -67.6042133500945 | etot = -33.5644508255978
881000  ekin = 16.8080553807487 |  erot = 17.2784522316571 | epot = -67.6509584364558 | etot = -33.56445082405
882000  ekin = 16.9100399121422 |  erot = 17.1190222365553 | epot = -67.5935129703415 | etot = -33.564450821644
883000  ekin = 16.9925721983265 |  erot = 16.9073416553641 | epot = -67.4643646724084 | etot = -33.5644508187178
884000  ekin = 17.0687034074115 |  erot = 16.67048082561 | epot = -67.3036350488216 | etot = -33.5644508158001
885000  ekin = 17.1519974199756 |  erot = 16.4352378719043 | epot = -67.1516861053527 | etot = -33.5644508134728
886000  ekin = 17.2529390375842 |  erot = 16.2234313422898 | epot = -67.0408211920411 | etot = -33.5644508121671
887000  ekin = 17.376292161494 |  erot = 16.0482363300928 | epot = -66.9889793035997 | etot = -33.564450812013
888000  ekin = 17.5203620950013 |  erot = 15.9127130127535 | epot = -66.9975259206022 | etot = -33.5644508128474
889000  ekin = 17.6781644429442 |  erot = 15.8105908060679 | epot = -67.0532060633496 | etot = -33.5644508143375
890000  ekin = 17.8397117325589 |  erot = 15.7285450771786 | epot = -67.1327076252509 | etot = -33.5644508155134
891000  ekin = 17.9946822371755 |  erot = 15.6526652149259 | epot = -67.2117982698108 | etot = -33.5644508177094
892000  ekin = 18.1331274126073 |  erot = 15.5631846554377 | epot = -67.2607628875091 | etot = -33.5644508194641
893000  ekin = 18.2472194942744 |  erot = 15.4391901248819 | epot = -67.2508604398193 | etot = -33.564450820663
894000  ekin = 18.332168661273 |  erot = 15.2648175300885 | epot = -67.1614370125491 | etot = -33.5644508211876
895000  ekin = 18.386290875304 |  erot = 15.0310128810826 | epot = -66.9817545773614 | etot = -33.5644508209748
896000  ekin = 18.4109116147776 |  erot = 14.7366844073042 | epot = -66.7120468421423 | etot = -33.5644508200605
897000  ekin = 18.4100490004312 |  erot = 14.3885926429961 | epot = -66.3630924620287 | etot = -33.5644508186014
898000  ekin = 18.389828162512 |  erot = 13.9998000551047 | epot = -65.9540790344517 | etot = -33.564450816835
899000  ekin = 18.3577139244112 |  erot = 13.5871378081075 | epot = -65.5093025475216 | etot = -33.5644508150029
900000  ekin = 18.3217786262171 |  erot = 13.168563040253 | epot = -65.054792479743 | etot = -33.5644508132729
901000  ekin = 18.2902589902708 |  erot = 12.761248428039 | epot = -64.615958230003 | etot = -33.5644508116932
902000  ekin = 18.271581068044 |  erot = 12.3808553813626 | epot = -64.2168872595979 | etot = -33.5644508101913
903000  ekin = 18.2748902560645 |  erot = 12.0419799125451 | epot = -63.8813209772219 | etot = -33.5644508086124
904000  ekin = 18.3109460800975 |  erot = 11.759427352969 | epot = -63.6348242398358 | etot = -33.5644508067694
905000  ekin = 18.3930925498515 |  erot = 11.549859487085 | epot = -63.5074028414555 | etot = -33.5644508045191
906000  ekin = 18.5347341833586 |  erot = 11.4295673261589 | epot = -63.5287523145117 | etot = -33.5644508049943
907000  ekin = 18.7414362437787 |  erot = 11.404503748966 | epot = -63.7103907971662 | etot = -33.5644508044215
908000  ekin = 19.0194889700471 |  erot = 11.4807236793626 | epot = -64.0646634540408 | etot = -33.5644508046311
909000  ekin = 19.3700614243105 |  erot = 11.6589605923462 | epot = -64.593472822349 | etot = -33.5644508056923
910000  ekin = 19.7882105266645 |  erot = 11.9333322689451 | epot = -65.2859936029487 | etot = -33.5644508073391
911000  ekin = 20.2647618452709 |  erot = 12.2921701414712 | epot = -66.1213827958969 | etot = -33.5644508091549
912000  ekin = 20.7894338970883 |  erot = 12.7195983422339 | epot = -67.0734830498163 | etot = -33.5644508104941
913000  ekin = 21.3541857337745 |  erot = 13.1939380964374 | epot = -68.1125746439448 | etot = -33.5644508137329
914000  ekin = 21.9410171525687 |  erot = 13.687616757849 | epot = -69.1930847283414 | etot = -33.5644508179237
915000  ekin = 22.5188846318734 |  erot = 14.16932567968 | epot = -70.2526611344249 | etot = -33.5644508228715
916000  ekin = 23.0495496139557 |  erot = 14.6035757250401 | epot = -71.2175761677848 | etot = -33.5644508287891
917000  ekin = 23.4897289759147 |  erot = 14.9539952334395 | epot = -72.008175042677 | etot = -33.5644508333228
918000  ekin = 23.793918525032 |  erot = 15.1976473238082 | epot = -72.5560167328699 | etot = -33.5644508840297
919000  ekin = 23.6168045182341 |  erot = 15.3655091438058 | epot = -72.5467645040866 | etot = -33.5644508420467
920000  ekin = 23.1655315926359 |  erot = 15.5814764919713 | epot = -72.3114588955292 | etot = -33.564450810922
921000  ekin = 22.8561009741104 |  erot = 15.8041631687715 | epot = -72.2247150029113 | etot = -33.5644508600293
922000  ekin = 22.440617202278 |  erot = 15.7102388685898 | epot = -71.7153069090585 | etot = -33.5644508381906
923000  ekin = 21.8145072465076 |  erot = 15.4204628492068 | epot = -70.7994209259653 | etot = -33.5644508302509
924000  ekin = 21.0897106147462 |  erot = 15.1252102267558 | epot = -69.779371660809 | etot = -33.564450819307
925000  ekin = 20.3778961100254 |  erot = 14.8990596144822 | epot = -68.8414065327615 | etot = -33.5644508082539
926000  ekin = 19.7497733159152 |  erot = 14.7841436088873 | epot = -68.09836773023 | etot = -33.5644508054275
927000  ekin = 19.2202389460865 |  erot = 14.8057849839021 | epot = -67.5904747324578 | etot = -33.5644508024691
928000  ekin = 18.8098178362748 |  erot = 14.9862994082238 | epot = -67.3605680444063 | etot = -33.5644507999078
929000  ekin = 18.5263530323605 |  erot = 15.3189513345966 | epot = -67.4097551843837 | etot = -33.5644508174266
930000  ekin = 18.3031582479388 |  erot = 15.7144845764413 | epot = -67.5820936525014 | etot = -33.5644508281213
931000  ekin = 18.052835346557 |  erot = 16.092098153965 | epot = -67.7093843373657 | etot = -33.5644508368437
932000  ekin = 17.7015072492511 |  erot = 16.387471604779 | epot = -67.65342969523 | etot = -33.5644508411999
933000  ekin = 17.2115757803748 |  erot = 16.5716045730374 | epot = -67.3476311922497 | etot = -33.5644508388376
934000  ekin = 16.5514003246016 |  erot = 16.6395832283063 | epot = -66.75543445475 | etot = -33.5644509018421
935000  ekin = 15.4338978961215 |  erot = 16.4795973580526 | epot = -65.4779460874831 | etot = -33.564450833309
936000  ekin = 14.2992444317822 |  erot = 16.4524645717587 | epot = -64.3161597854276 | etot = -33.5644507818867
937000  ekin = 13.594877401132 |  erot = 16.830708194674 | epot = -63.9900364074917 | etot = -33.5644508116857
938000  ekin = 13.160092692852 |  erot = 17.3617572909332 | epot = -64.0863008567502 | etot = -33.564450872965
939000  ekin = 12.6302856055551 |  erot = 17.6616475312619 | epot = -63.8563839264151 | etot = -33.564450789598
940000  ekin = 12.1844103640073 |  erot = 17.975089026791 | epot = -63.7239501809261 | etot = -33.5644507901278
941000  ekin = 11.8736812748832 |  erot = 18.3544207715386 | epot = -63.7925528388995 | etot = -33.5644507924777
942000  ekin = 11.6856910066454 |  erot = 18.7737996809481 | epot = -64.0239414834381 | etot = -33.5644507958447
943000  ekin = 11.5993719903219 |  erot = 19.1997647141448 | epot = -64.3635875039119 | etot = -33.5644507994453
944000  ekin = 11.5911163916187 |  erot = 19.5969000309861 | epot = -64.7524672252794 | etot = -33.5644508026747
945000  ekin = 11.6394594899525 |  erot = 19.9326030696023 | epot = -65.1365133646937 | etot = -33.5644508051389
946000  ekin = 11.7278293628471 |  erot = 20.1807231684703 | epot = -65.4730033379394 | etot = -33.5644508066221
947000  ekin = 11.8456010888812 |  erot = 20.3241537664275 | epot = -65.7342056623468 | etot = -33.5644508070381
948000  ekin = 11.9879925882266 |  erot = 20.3564922529538 | epot = -65.9089356476132 | etot = -33.5644508064327
949000  ekin = 12.1551997680916 |  erot = 20.2822909016584 | epot = -66.0019414747425 | etot = -33.5644508049925
950000  ekin = 12.3510408554663 |  erot = 20.1156595945604 | epot = -66.0311512530561 | etot = -33.5644508030294
951000  ekin = 12.5812930312435 |  erot = 19.8773156553827 | epot = -66.0230594875482 | etot = -33.564450800922
952000  ekin = 12.8471183960929 |  erot = 19.5848425621949 | epot = -65.9964117598713 | etot = -33.5644508015834
953000  ekin = 13.1479143733425 |  erot = 19.2558560216829 | epot = -65.9682211949185 | etot = -33.564450799893
954000  ekin = 13.4859606983262 |  erot = 18.9116613843371 | epot = -65.9620728814226 | etot = -33.5644507987594
955000  ekin = 13.860739685279 |  erot = 18.5688220696202 | epot = -65.9940125531311 | etot = -33.5644507982319
956000  ekin = 14.2684790807018 |  erot = 18.2386766937266 | epot = -66.0716065726754 | etot = -33.564450798247
957000  ekin = 14.7022261472607 |  erot = 17.9280211897722 | epot = -66.1946981357072 | etot = -33.5644507986744
958000  ekin = 15.1523556989058 |  erot = 17.6404101820629 | epot = -66.3572166803222 | etot = -33.5644507993535
959000  ekin = 15.6074014579555 |  erot = 17.3776018607455 | epot = -66.5494541188253 | etot = -33.5644508001243
960000  ekin = 16.0551055244556 |  erot = 17.1408213394221 | epot = -66.7603776647027 | etot = -33.564450800825
961000  ekin = 16.4838195107838 |  erot = 16.9315995016106 | epot = -66.9798698137782 | etot = -33.5644508013838
962000  ekin = 16.8831178333686 |  erot = 16.7524507897419 | epot = -67.2000194248218 | etot = -33.5644508017113
963000  ekin = 17.244640241545 |  erot = 16.6070592972379 | epot = -67.4161503405653 | etot = -33.5644508017824
964000  ekin = 17.5626944197584 |  erot = 16.5001400725172 | epot = -67.6272852938868 | etot = -33.5644508016113
965000  ekin = 17.8343164099078 |  erot = 16.4370960271688 | epot = -67.8358632383403 | etot = -33.5644508012637
966000  ekin = 18.0588817975134 |  erot = 16.4234839451144 | epot = -68.0468165434637 | etot = -33.564450800836
967000  ekin = 18.2373393587302 |  erot = 16.4643418620894 | epot = -68.266132021265 | etot = -33.5644508004455
968000  ekin = 18.3712253375388 |  erot = 16.563446909187 | epot = -68.4991230469379 | etot = -33.5644508002121
969000  ekin = 18.4616731691088 |  erot = 16.7225928708134 | epot = -68.7487168401499 | etot = -33.5644508002277
970000  ekin = 18.5086423973858 |  erot = 16.9409874258565 | epot = -69.0140806237958 | etot = -33.5644508005536
971000  ekin = 18.5105217412755 |  erot = 17.214832230633 | epot = -69.2898047731065 | etot = -33.5644508011979
972000  ekin = 18.4641879125377 |  erot = 17.5371342402664 | epot = -69.5657729549356 | etot = -33.5644508021315
973000  ekin = 18.3654967999012 |  erot = 17.8977436625517 | epot = -69.8276912657417 | etot = -33.5644508032887
974000  ekin = 18.2101154258174 |  erot = 18.2835968509882 | epot = -70.0581630813831 | etot = -33.5644508045775
975000  ekin = 17.9945660198245 |  erot = 18.679151585179 | epot = -70.2381684108954 | etot = -33.5644508058918
976000  ekin = 17.7173305362465 |  erot = 19.0670257084347 | epot = -70.3488070517959 | etot = -33.5644508071147
977000  ekin = 17.3798453246874 |  erot = 19.4288693644911 | epot = -70.3731654973096 | etot = -33.564450808131
978000  ekin = 16.9872046743672 |  erot = 19.7465105373362 | epot = -70.2981660205369 | etot = -33.5644508088335
979000  ekin = 16.5484156726545 |  erot = 20.003399964349 | epot = -70.1162664461316 | etot = -33.5644508091281
980000  ekin = 16.0760394656413 |  erot = 20.1863036422891 | epot = -69.8267939138246 | etot = -33.5644508058942
981000  ekin = 15.5958799301626 |  erot = 20.2892058214791 | epot = -69.4495365582977 | etot = -33.564450806656
982000  ekin = 15.0884229302144 |  erot = 20.3042917828298 | epot = -68.9571655634027 | etot = -33.5644508503584
983000  ekin = 14.6278059029545 |  erot = 20.1974254483503 | epot = -68.3896821593597 | etot = -33.5644508080549
984000  ekin = 14.485718063311 |  erot = 20.0570072888177 | epot = -68.1071762228806 | etot = -33.5644508707518
985000  ekin = 14.2080884830734 |  erot = 19.9192763601173 | epot = -67.6918156456166 | etot = -33.5644508024259
986000  ekin = 13.9758844804429 |  erot = 19.8429645531598 | epot = -67.3832998336408 | etot = -33.5644508000382
987000  ekin = 13.8444879493875 |  erot = 19.8435554501171 | epot = -67.2524942066345 | etot = -33.5644508071299
988000  ekin = 13.7899575731449 |  erot = 19.8765535823062 | epot = -67.2309619605733 | etot = -33.5644508051221
989000  ekin = 13.7826987604599 |  erot = 19.9896359982467 | epot = -67.33678556515 | etot = -33.5644508064434
990000  ekin = 13.8064597814368 |  erot = 20.1866383299941 | epot = -67.5575489199945 | etot = -33.5644508085636
991000  ekin = 13.8444762086822 |  erot = 20.4553568201502 | epot = -67.8642838397156 | etot = -33.5644508108832
992000  ekin = 13.8831356414498 |  erot = 20.7777558671444 | epot = -68.2253423212848 | etot = -33.5644508126905
993000  ekin = 13.9170731708051 |  erot = 21.1354076313355 | epot = -68.6169316155763 | etot = -33.5644508134356
994000  ekin = 13.9526839723605 |  erot = 21.5142214308574 | epot = -69.0313562161335 | etot = -33.5644508129157
995000  ekin = 14.0087176866924 |  erot = 21.9069609176612 | epot = -69.48012941576 | etot = -33.5644508114064
996000  ekin = 14.1134296920535 |  erot = 22.3130050756288 | epot = -69.990885576857 | etot = -33.5644508091748
997000  ekin = 14.3000196862537 |  erot = 22.7364207802781 | epot = -70.600891273411 | etot = -33.5644508068792
998000  ekin = 14.6010980695387 |  erot = 23.183042080775 | epot = -71.3485909553466 | etot = -33.5644508050329
999000  ekin = 15.0427312822231 |  erot = 23.6573925990873 | epot = -72.2645746918023 | etot = -33.5644508104918
1000000  ekin = 15.6136601360355 |  erot = 24.1382005863837 | epot = -73.3163115358825 | etot = -33.5644508134634
   1000000   349.20396     -76.691733      3.375421      -57.702651     -0.00024160055  39304000     
Loop time of 18.7004 on 1 procs for 1000000 steps with 16 atoms

Performance: 78.821 ns/day, 0.304 hours/ns, 53474.821 timesteps/s, 855.597 katom-step/s
99.7% CPU use with 1 MPI tasks x no OpenMP threads

MPI task timing breakdown:
Section |  min time  |  avg time  |  max time  |%varavg| %total
---------------------------------------------------------------
Pair    | 15.566     | 15.566     | 15.566     |   0.0 | 83.24
Bond    | 0.80859    | 0.80859    | 0.80859    |   0.0 |  4.32
Neigh   | 0.008836   | 0.008836   | 0.008836   |   0.0 |  0.05
Comm    | 0.29947    | 0.29947    | 0.29947    |   0.0 |  1.60
Output  | 0.13385    | 0.13385    | 0.13385    |   0.0 |  0.72
Modify  | 1.5228     | 1.5228     | 1.5228     |   0.0 |  8.14
Other   |            | 0.3603     |            |       |  1.93

Nlocal:             16 ave          16 max          16 min
Histogram: 1 0 0 0 0 0 0 0 0 0
Nghost:              0 ave           0 max           0 min
Histogram: 1 0 0 0 0 0 0 0 0 0
Neighs:            107 ave         107 max         107 min
Histogram: 1 0 0 0 0 0 0 0 0 0

Total # of neighbors = 107
Ave neighs/atom = 6.6875
Ave special neighs/atom = 3.75
Neighbor list builds = 1000
Dangerous builds = 0

write_data last_config.${number}.* nocoeff
write_data last_config.2.* nocoeff
System init for write_data ...
Generated 0 of 6 mixed pair_coeff terms from geometric mixing rule
#write_restart last_config.${number}.*
Total wall time: 0:00:18
