LAMMPS (2 Apr 2025)
# LAMMPS input file in real units via oxdna lj2real.py, date 2024-05-19
variable number	equal 2
variable ofreq	equal 1000
variable efreq	equal 1000
variable T      equal 300.0
variable rhos   equal 0.5

units real

dimension 3

newton on

boundary  p p p

atom_style hybrid bond ellipsoid oxdna
WARNING: Atom style hybrid defines both, per-type and per-atom masses; both must be set, but only per-atom masses will be used (../atom_vec_hybrid.cpp:132)
atom_modify sort 0 8.518

# Pair interactions require lists of neighbours to be calculated
neighbor 17.036 bin
neigh_modify every 1 delay 0 check yes

read_data data.duplex2
Reading data file ...
  orthogonal box = (-170 -170 -170) to (170 170 170)
  1 by 1 by 1 MPI processor grid
  reading atoms ...
  16 atoms
  reading velocities ...
  16 velocities
  scanning bonds ...
  1 = max bonds/atom
  16 ellipsoids
  orthogonal box = (-170 -170 -170) to (170 170 170)
  1 by 1 by 1 MPI processor grid
  reading bonds ...
  13 bonds
Finding 1-2 1-3 1-4 neighbors ...
  special bond factors lj:    0        0        0       
  special bond factors coul:  0        0        0       
     2 = max # of 1-2 neighbors
     2 = max # of 1-3 neighbors
     4 = max # of 1-4 neighbors
     6 = max # of special neighbors
  special bonds CPU = 0.000 seconds
  read_data CPU = 0.002 seconds

set atom * mass 315.8376
Setting atom values ...
  16 settings made for mass

group all type 1 4
16 atoms in group all

# oxRNA2 bond interactions - FENE backbone
bond_style oxrna2/fene
bond_coeff * 11.92337812042065 2.1295 6.482800913
special_bonds lj 0 1 1
Finding 1-2 1-3 1-4 neighbors ...
  special bond factors lj:    0        1        1       
  special bond factors coul:  0        0        0       
     2 = max # of 1-2 neighbors
     2 = max # of 1-3 neighbors
     4 = max # of 1-4 neighbors
     6 = max # of special neighbors
  special bonds CPU = 0.000 seconds

# oxRNA2 pair interactions
pair_style hybrid/overlay oxrna2/excv oxrna2/stk oxrna2/hbond oxrna2/xstk oxrna2/coaxstk oxrna2/dh
pair_coeff * * oxrna2/excv 11.92337812042065 5.9626 5.74965 11.92337812042065 4.38677 4.259 11.92337812042065 2.81094 2.72576
pair_coeff * * oxrna2/stk seqdep ${T} 8.35864576375849 0.005504556 0.70439070204273 3.66274 7.92174 2.9813 6.64404 0.9 0.0 0.95 0.9 0.0 0.95 1.3 0.0 0.8 1.3 0.0 0.8 2.0 0.65 2.0 0.65
pair_coeff * * oxrna2/stk seqdep 300 8.35864576375849 0.005504556 0.70439070204273 3.66274 7.92174 2.9813 6.64404 0.9 0.0 0.95 0.9 0.0 0.95 1.3 0.0 0.8 1.3 0.0 0.8 2.0 0.65 2.0 0.65
pair_coeff * * oxrna2/hbond seqdep 0.0 0.93918760272364 3.4072 6.3885 2.89612 5.9626 1.5 0.0 0.7 1.5 0.0 0.7 1.5 0.0 0.7 0.46 3.141592653589793 0.7 4.0 1.5707963267948966 0.45 4.0 1.5707963267948966 0.45
pair_coeff 1 4 oxrna2/hbond seqdep 5.18928666388042 0.93918760272364 3.4072 6.3885 2.89612 5.9626 1.5 0.0 0.7 1.5 0.0 0.7 1.5 0.0 0.7 0.46 3.141592653589793 0.7 4.0 1.5707963267948966 0.45 4.0 1.5707963267948966 0.45
pair_coeff 2 3 oxrna2/hbond seqdep 5.18928666388042 0.93918760272364 3.4072 6.3885 2.89612 5.9626 1.5 0.0 0.7 1.5 0.0 0.7 1.5 0.0 0.7 0.46 3.141592653589793 0.7 4.0 1.5707963267948966 0.45 4.0 1.5707963267948966 0.45
pair_coeff 3 4 oxrna2/hbond seqdep 5.18928666388042 0.93918760272364 3.4072 6.3885 2.89612 5.9626 1.5 0.0 0.7 1.5 0.0 0.7 1.5 0.0 0.7 0.46 3.141592653589793 0.7 4.0 1.5707963267948966 0.45 4.0 1.5707963267948966 0.45
pair_coeff * * oxrna2/xstk 4.92690859644113 4.259 5.1108 3.57756 4.94044 2.25 0.505 0.58 1.7 1.266 0.68 1.7 1.266 0.68 1.7 0.309 0.68 1.7 0.309 0.68
pair_coeff * * oxrna2/coaxstk 6.57330882442206 4.259 5.1108 3.57756 4.94044 2.0 2.592 0.65 1.3 0.151 0.8 0.9 0.685 0.95 0.9 0.685 0.95 2.0 -0.65 2.0 -0.65
pair_coeff * * oxrna2/dh ${T} ${rhos} 1.02455
pair_coeff * * oxrna2/dh 300 ${rhos} 1.02455
pair_coeff * * oxrna2/dh 300 0.5 1.02455

# NVE ensemble
fix 1 all nve/asphere
#fix 2 all langevin ${T} ${T} 4265.0 457145 angmom 10

timestep 0.01706

#comm_style tiled
fix 3 all balance 1000 1.03 shift xyz 10 1.03
comm_modify cutoff 32.4

compute quat all property/atom quatw quati quatj quatk

compute erot all erotate/asphere
compute ekin all ke
compute epot all pe
variable erot equal c_erot
variable ekin equal c_ekin
variable epot equal c_epot
variable etot equal c_erot+c_ekin+c_epot
fix 5 all print ${efreq} "$(step)  ekin = ${ekin} |  erot = ${erot} | epot = ${epot} | etot = ${etot}" screen yes
fix 5 all print 1000 "$(step)  ekin = ${ekin} |  erot = ${erot} | epot = ${epot} | etot = ${etot}" screen yes

dump out all custom ${ofreq} out.${number}.lammpstrj id mol type x y z ix iy iz vx vy vz c_quat[1] c_quat[2] c_quat[3] c_quat[4] angmomx angmomy angmomz
dump out all custom 1000 out.${number}.lammpstrj id mol type x y z ix iy iz vx vy vz c_quat[1] c_quat[2] c_quat[3] c_quat[4] angmomx angmomy angmomz
dump out all custom 1000 out.2.lammpstrj id mol type x y z ix iy iz vx vy vz c_quat[1] c_quat[2] c_quat[3] c_quat[4] angmomx angmomy angmomz
dump_modify out sort id
dump_modify out format line "%d %d %d  %22.15le %22.15le %22.15le  %d %d %d  %22.15le %22.15le %22.15le  %22.15le %22.15le %22.15le %22.15le  %22.15le %22.15le %22.15le"

run 1000000
Generated 0 of 6 mixed pair_coeff terms from geometric mixing rule
Neighbor list info ...
  update: every = 1 steps, delay = 0 steps, check = yes
  max neighbors/atom: 2000, page size: 100000
  master list distance cutoff = 36.640032
  ghost atom cutoff = 36.640032
  binsize = 18.320016, bins = 19 19 19
  5 neighbor lists, perpetual/occasional/extra = 5 0 0
  (1) pair oxrna2/excv, perpetual
      attributes: half, newton on
      pair build: half/bin/newton
      stencil: half/bin/3d
      bin: standard
  (2) pair oxrna2/hbond, perpetual, copy from (1)
      attributes: half, newton on
      pair build: copy
      stencil: none
      bin: none
  (3) pair oxrna2/xstk, perpetual, copy from (1)
      attributes: half, newton on
      pair build: copy
      stencil: none
      bin: none
  (4) pair oxrna2/coaxstk, perpetual, copy from (1)
      attributes: half, newton on
      pair build: copy
      stencil: none
      bin: none
  (5) pair oxrna2/dh, perpetual, copy from (1)
      attributes: half, newton on
      pair build: copy
      stencil: none
      bin: none
WARNING: Communication cutoff adjusted to 36.640032409886274 (../comm.cpp:753)
0  ekin = 16.1203242878408 |  erot = 16.6982509426318 | epot = -66.3830249260541 | etot = -33.5644496955815
Per MPI rank memory allocation (min/avg/max) = 7.655 | 7.655 | 7.655 Mbytes
   Step          Temp          E_pair         E_mol          TotEng         Press          Volume    
         0   360.53565     -69.627742      3.2447172     -50.262701      0.034084814    39304000     
1000  ekin = 16.3558183649387 |  erot = 16.6323090455317 | epot = -66.5525771041996 | etot = -33.5644496937292
2000  ekin = 16.6191649168148 |  erot = 16.5684372137643 | epot = -66.7520518221218 | etot = -33.5644496915427
3000  ekin = 16.9230904408655 |  erot = 16.5204480451833 | epot = -67.0079881759689 | etot = -33.5644496899201
4000  ekin = 17.2772162612592 |  erot = 16.4986792932201 | epot = -67.3403452437718 | etot = -33.5644496892925
5000  ekin = 17.6866959075726 |  erot = 16.5050138456573 | epot = -67.7561594428212 | etot = -33.5644496895913
6000  ekin = 18.1531343302965 |  erot = 16.5325161302816 | epot = -68.2501001506517 | etot = -33.5644496900737
7000  ekin = 18.6806534933141 |  erot = 16.5738535187236 | epot = -68.818956701435 | etot = -33.5644496893973
8000  ekin = 19.2766528199697 |  erot = 16.626151587963 | epot = -69.4672540969562 | etot = -33.5644496890235
9000  ekin = 19.946149039732 |  erot = 16.690847598574 | epot = -70.2014463262319 | etot = -33.5644496879258
10000  ekin = 20.6973181248475 |  erot = 16.777296043853 | epot = -71.0390638548549 | etot = -33.5644496861544
   10000   349.20396     -76.691733      3.375421      -57.702651     -0.00024160055  39304000     
Loop time of 18.7004 on 1 procs for 1000000 steps with 16 atoms

Performance: 78.821 ns/day, 0.304 hours/ns, 53474.821 timesteps/s, 855.597 katom-step/s
99.7% CPU use with 1 MPI tasks x no OpenMP threads

MPI task timing breakdown:
Section |  min time  |  avg time  |  max time  |%varavg| %total
---------------------------------------------------------------
Pair    | 15.566     | 15.566     | 15.566     |   0.0 | 83.24
Bond    | 0.80859    | 0.80859    | 0.80859    |   0.0 |  4.32
Neigh   | 0.008836   | 0.008836   | 0.008836   |   0.0 |  0.05
Comm    | 0.29947    | 0.29947    | 0.29947    |   0.0 |  1.60
Output  | 0.13385    | 0.13385    | 0.13385    |   0.0 |  0.72
Modify  | 1.5228     | 1.5228     | 1.5228     |   0.0 |  8.14
Other   |            | 0.3603     |            |       |  1.93

Nlocal:             16 ave          16 max          16 min
Histogram: 1 0 0 0 0 0 0 0 0 0
Nghost:              0 ave           0 max           0 min
Histogram: 1 0 0 0 0 0 0 0 0 0
Neighs:            107 ave         107 max         107 min
Histogram: 1 0 0 0 0 0 0 0 0 0

Total # of neighbors = 107
Ave neighs/atom = 6.6875
Ave special neighs/atom = 3.75
Neighbor list builds = 1000
Dangerous builds = 0

write_data last_config.${number}.* nocoeff
write_data last_config.2.* nocoeff
System init for write_data ...
Generated 0 of 6 mixed pair_coeff terms from geometric mixing rule
#write_restart last_config.${number}.*
Total wall time: 0:00:18
