LAMMPS (11 Feb 2026 - Development - patch_10Dec2025-1372-ged4f75871d-modified)
# LAMMPS input file in real units via oxdna lj2real.py, date 2024-05-19
variable number	equal 2
variable ofreq	equal 1000
variable efreq	equal 1000
variable T      equal 300.0
variable rhos   equal 0.5

units real

dimension 3

newton on

boundary  p p p

atom_style hybrid bond ellipsoid oxdna
WARNING: Atom style hybrid defines both, per-type and per-atom masses; both must be set, but only per-atom masses will be used (../atom_vec_hybrid.cpp:132)
atom_modify sort 0 8.518

# Pair interactions require lists of neighbours to be calculated
neighbor 17.036 bin
neigh_modify every 1 delay 0 check yes

read_data data.duplex2
Reading data file ...
  orthogonal box = (-170 -170 -170) to (170 170 170)
  1 by 1 by 1 MPI processor grid
  reading atoms ...
  16 atoms
  reading velocities ...
  16 velocities
  scanning bonds ...
  1 = max bonds/atom
  16 ellipsoids
  orthogonal box = (-170 -170 -170) to (170 170 170)
  1 by 1 by 1 MPI processor grid
  reading bonds ...
  13 bonds
Finding 1-2 1-3 1-4 neighbors ...
  special bond factors lj:    0        0        0       
  special bond factors coul:  0        0        0       
     2 = max # of 1-2 neighbors
     2 = max # of 1-3 neighbors
     4 = max # of 1-4 neighbors
     6 = max # of special neighbors
  special bonds CPU = 0.000 seconds
  read_data CPU = 0.003 seconds

set atom * mass 315.75
Setting atom values ...
  16 settings made for mass

group all type 1 4
16 atoms in group all

# oxRNA2 bond interactions - FENE backbone
bond_style oxrna2/fene
bond_coeff * 11.923225551844991 2.1295 6.482800913
special_bonds lj 0 1 1
Finding 1-2 1-3 1-4 neighbors ...
  special bond factors lj:    0        1        1       
  special bond factors coul:  0        0        0       
     2 = max # of 1-2 neighbors
     2 = max # of 1-3 neighbors
     4 = max # of 1-4 neighbors
     6 = max # of special neighbors
  special bonds CPU = 0.000 seconds

# oxRNA2 pair interactions
pair_style hybrid/overlay oxrna2/excv oxrna2/stk oxrna2/hbond oxrna2/xstk oxrna2/coaxstk oxrna2/dh
pair_coeff * * oxrna2/excv 11.923225551844991 5.9626 5.74965 11.923225551844991 4.38677 4.259 11.923225551844991 2.81094 2.72576
pair_coeff * * oxrna2/stk seqdep ${T} 8.358538808609895 0.005504555796435 0.70439070204273 3.66274 7.92174 2.9813 6.64404 0.9 0.0 0.95 0.9 0.0 0.95 1.3 0.0 0.8 1.3 0.0 0.8 2.0 0.65 2.0 0.65
pair_coeff * * oxrna2/stk seqdep 300 8.358538808609895 0.005504555796435 0.70439070204273 3.66274 7.92174 2.9813 6.64404 0.9 0.0 0.95 0.9 0.0 0.95 1.3 0.0 0.8 1.3 0.0 0.8 2.0 0.65 2.0 0.65
pair_coeff * * oxrna2/hbond seqdep 0.0 0.93918760272364 3.4072 6.3885 2.89612 5.9626 1.5 0.0 0.7 1.5 0.0 0.7 1.5 0.0 0.7 0.46 3.141592653589793 0.7 4.0 1.5707963267948966 0.45 4.0 1.5707963267948966 0.45
pair_coeff 1 4 oxrna2/hbond seqdep 5.189220263061201 0.93918760272364 3.4072 6.3885 2.89612 5.9626 1.5 0.0 0.7 1.5 0.0 0.7 1.5 0.0 0.7 0.46 3.141592653589793 0.7 4.0 1.5707963267948966 0.45 4.0 1.5707963267948966 0.45
pair_coeff 2 3 oxrna2/hbond seqdep 5.189220263061201 0.93918760272364 3.4072 6.3885 2.89612 5.9626 1.5 0.0 0.7 1.5 0.0 0.7 1.5 0.0 0.7 0.46 3.141592653589793 0.7 4.0 1.5707963267948966 0.45 4.0 1.5707963267948966 0.45
pair_coeff 3 4 oxrna2/hbond seqdep 5.189220263061201 0.93918760272364 3.4072 6.3885 2.89612 5.9626 1.5 0.0 0.7 1.5 0.0 0.7 1.5 0.0 0.7 0.46 3.141592653589793 0.7 4.0 1.5707963267948966 0.45 4.0 1.5707963267948966 0.45
pair_coeff * * oxrna2/xstk 4.926845552946290 4.259 5.1108 3.57756 4.94044 2.25 0.505 0.58 1.7 1.266 0.68 1.7 1.266 0.68 1.7 0.309 0.68 1.7 0.309 0.68
pair_coeff * * oxrna2/coaxstk 6.573224714000113 4.259 5.1108 3.57756 4.94044 2.0 2.592 0.65 1.3 0.151 0.8 0.9 0.685 0.95 0.9 0.685 0.95 2.0 -0.65 2.0 -0.65
pair_coeff * * oxrna2/dh ${T} ${rhos} 1.02455
pair_coeff * * oxrna2/dh 300 ${rhos} 1.02455
pair_coeff * * oxrna2/dh 300 0.5 1.02455

# NVE ensemble
fix 1 all nve/asphere
#fix 2 all langevin ${T} ${T} 4265.0 457145 angmom 10

timestep 0.017055

#comm_style tiled
fix 3 all balance 1000 1.03 shift xyz 10 1.03
comm_modify cutoff 32.4

compute quat all property/atom quatw quati quatj quatk

compute erot all erotate/asphere
compute ekin all ke
compute epot all pe
variable erot equal c_erot
variable ekin equal c_ekin
variable epot equal c_epot
variable etot equal c_erot+c_ekin+c_epot
fix 5 all print ${efreq} "$(step)  ekin = ${ekin} |  erot = ${erot} | epot = ${epot} | etot = ${etot}" screen yes
fix 5 all print 1000 "$(step)  ekin = ${ekin} |  erot = ${erot} | epot = ${epot} | etot = ${etot}" screen yes

dump out all custom ${ofreq} out.${number}.lammpstrj id mol type x y z ix iy iz vx vy vz c_quat[1] c_quat[2] c_quat[3] c_quat[4] angmomx angmomy angmomz
dump out all custom 1000 out.${number}.lammpstrj id mol type x y z ix iy iz vx vy vz c_quat[1] c_quat[2] c_quat[3] c_quat[4] angmomx angmomy angmomz
dump out all custom 1000 out.2.lammpstrj id mol type x y z ix iy iz vx vy vz c_quat[1] c_quat[2] c_quat[3] c_quat[4] angmomx angmomy angmomz
dump_modify out sort id
dump_modify out format line "%d %d %d  %22.15le %22.15le %22.15le  %d %d %d  %22.15le %22.15le %22.15le  %22.15le %22.15le %22.15le %22.15le  %22.15le %22.15le %22.15le"

run 10000
Generated 0 of 6 mixed pair_coeff terms from geometric mixing rule
Neighbor list info ...
  update: every = 1 steps, delay = 0 steps, check = yes
  max neighbors/atom: 2000, page size: 100000
  master list distance cutoff = 36.640032
  ghost atom cutoff = 36.640032
  binsize = 18.320016, bins = 19 19 19
  5 neighbor lists, perpetual/occasional/extra = 5 0 0
  (1) pair oxrna2/excv, perpetual
      attributes: half, newton on
      pair build: half/bin/newton
      stencil: half/bin/3d
      bin: standard
  (2) pair oxrna2/hbond, perpetual, copy from (1)
      attributes: half, newton on
      pair build: copy
      stencil: none
      bin: none
  (3) pair oxrna2/xstk, perpetual, copy from (1)
      attributes: half, newton on
      pair build: copy
      stencil: none
      bin: none
  (4) pair oxrna2/coaxstk, perpetual, copy from (1)
      attributes: half, newton on
      pair build: copy
      stencil: none
      bin: none
  (5) pair oxrna2/dh, perpetual, copy from (1)
      attributes: half, newton on
      pair build: copy
      stencil: none
      bin: none
WARNING: Communication cutoff adjusted to 36.640032409886274 (../comm.cpp:703)
0  ekin = 16.124695569505 |  erot = 16.7027740772248 | epot = -66.3822510796369 | etot = -33.5547814329071
Per MPI rank memory allocation (min/avg/max) = 8.842 | 8.842 | 8.842 Mbytes
   Step          Temp          E_pair         E_mol          TotEng         Press          Volume    
         0   360.63341     -69.626927      3.2446757     -50.257556      0.034089706    39304000     
1000  ekin = 16.3601654634659 |  erot = 16.6368032824082 | epot = -66.5517501769294 | etot = -33.5547814310554
2000  ekin = 16.623451252908 |  erot = 16.5728409627307 | epot = -66.7510736445073 | etot = -33.5547814288686
3000  ekin = 16.927278316543 |  erot = 16.5247054198228 | epot = -67.0067651636119 | etot = -33.5547814272461
4000  ekin = 16.8881702967533 |  erot = 16.3227381909875 | epot = -66.7656901081771 | etot = -33.5547816204363
5000  ekin = 16.4253491046289 |  erot = 16.7995209732849 | epot = -66.7796515030534 | etot = -33.5547814251396
6000  ekin = 17.0933141835597 |  erot = 17.4727151086867 | epot = -68.1208111154087 | etot = -33.5547818231622
7000  ekin = 17.6261390839677 |  erot = 17.5060536820013 | epot = -68.6869745882802 | etot = -33.5547818223113
8000  ekin = 18.2497664431959 |  erot = 17.6215876699413 | epot = -69.4261359353333 | etot = -33.554781822196
9000  ekin = 18.9644818889214 |  erot = 17.8234400977181 | epot = -70.3427038091653 | etot = -33.5547818225258
10000  ekin = 19.7701361905063 |  erot = 18.1103549699277 | epot = -71.4352729833511 | etot = -33.5547818229171
     10000   442.16473     -74.316533      2.8812602     -51.665137      0.031503497    39304000     
Loop time of 0.116514 on 1 procs for 10000 steps with 16 atoms

Performance: 126.470 ns/day, 0.190 hours/ns, 85826.596 timesteps/s, 1.373 Matom-step/s
99.5% CPU use with 1 MPI tasks x no OpenMP threads

MPI task timing breakdown:
Section |  min time  |  avg time  |  max time  |%varavg| %total
---------------------------------------------------------------
Pair    | 0.099923   | 0.099923   | 0.099923   |   0.0 | 85.76
Bond    | 0.004212   | 0.004212   | 0.004212   |   0.0 |  3.62
Neigh   | 6.2e-05    | 6.2e-05    | 6.2e-05    |   0.0 |  0.05
Comm    | 0.000899   | 0.000899   | 0.000899   |   0.0 |  0.77
Output  | 0.000772   | 0.000772   | 0.000772   |   0.0 |  0.66
Modify  | 0.009768   | 0.009768   | 0.009768   |   0.0 |  8.38
Other   |            | 0.000878   |            |       |  0.75

Nlocal:             16 ave          16 max          16 min
Histogram: 1 0 0 0 0 0 0 0 0 0
Nghost:              0 ave           0 max           0 min
Histogram: 1 0 0 0 0 0 0 0 0 0
Neighs:            120 ave         120 max         120 min
Histogram: 1 0 0 0 0 0 0 0 0 0

Total # of neighbors = 120
Ave neighs/atom = 7.5
Ave special neighs/atom = 3.75
Neighbor list builds = 10
Dangerous builds = 0

write_data last_config.${number}.* nocoeff
write_data last_config.2.* nocoeff
System init for write_data ...
Generated 0 of 6 mixed pair_coeff terms from geometric mixing rule
#write_restart last_config.${number}.*
Total wall time: 0:00:00
