LAMMPS data file in real units via oxdna lj2real.py, date 2026-04-03

148 atoms
4 atom types
148 bonds
1 bond types
148 ellipsoids

0 851 xlo xhi
0 851 ylo yhi
0 851 zlo zhi

Masses

1 315.75
2 315.75
3 315.75
4 315.75

Atoms # hybrid

1 2 206.4892753155009 209.20834759218275 213.27254281656516 1 1 1.0013682915199638 0 0 0
2 2 207.92441128920885 206.28827791400806 216.254007998457 1 1 1.0013682915199638 0 0 0
3 2 210.55651163441937 204.15393570899465 219.30119976569603 1 1 1.0013682915199638 0 0 0
4 2 214.8087487094065 204.27740652739345 223.36934152677213 1 1 1.0013682915199638 0 0 0
5 2 217.8428288368522 205.48490109124552 226.17586131096022 1 1 1.0013682915199638 0 0 0
6 2 219.55943270964323 208.2821021584664 228.05509554611277 1 1 1.0013682915199638 0 0 0
7 2 219.8371537036059 211.694267780856 230.2106003559281 1 1 1.0013682915199638 0 0 0
8 2 219.90126961603042 213.65301025994853 234.049035139551 1 1 1.0013682915199638 0 0 0
9 2 219.31493992529272 214.4259473771893 239.23673735853203 1 1 1.0013682915199638 0 0 0
10 2 219.1795729992032 212.74231261366742 244.090924196599 1 1 1.0013682915199638 0 0 0
11 2 220.40816608413408 209.86205676859743 247.50151002785447 1 1 1.0013682915199638 0 0 0
12 2 223.932611824975 207.06189067221425 249.2009710541746 1 1 1.0013682915199638 0 0 0
13 2 227.81550226687312 205.5444410172177 251.51115521661794 1 1 1.0013682915199638 0 0 0
14 2 232.14439154427077 204.95758084272072 251.22406524983043 1 1 1.0013682915199638 0 0 0
15 2 236.07946978211015 205.46169022626574 250.313480216585 1 1 1.0013682915199638 0 0 0
16 2 240.55995728564238 207.42795175606716 249.7387289310635 1 1 1.0013682915199638 0 0 0
17 2 243.66398016148514 209.32926437661106 249.87248727781852 1 1 1.0013682915199638 0 0 0
18 2 245.51081964420004 213.2391037572422 251.33578377863927 1 1 1.0013682915199638 0 0 0
19 2 248.86727192416154 215.94269859304754 253.58065180653617 1 1 1.0013682915199638 0 0 0
20 2 250.76851121197944 216.83128735097296 257.6121998040972 1 1 1.0013682915199638 0 0 0
21 2 255.5857057946585 216.34912138012413 260.2478741325438 1 1 1.0013682915199638 0 0 0
22 2 260.305021627277 214.68566929401067 260.63572152893386 1 1 1.0013682915199638 0 0 0
23 2 263.60885285417686 212.43376318493233 259.3108989138644 1 1 1.0013682915199638 0 0 0
24 2 266.24118288388837 210.46411437884183 256.52836208729985 1 1 1.0013682915199638 0 0 0
25 2 267.9536830094733 209.86142272648485 252.40611164031048 1 1 1.0013682915199638 0 0 0
26 2 270.14216503927315 210.7687004535789 247.5159212409434 1 1 1.0013682915199638 0 0 0
27 2 270.95636164579963 213.40043649986848 244.55779953943193 1 1 1.0013682915199638 0 0 0
28 2 273.2071536659217 215.72630911898148 241.59620327712489 1 1 1.0013682915199638 0 0 0
29 2 276.81990319234137 217.39065934235956 240.62671336276932 1 1 1.0013682915199638 0 0 0
30 2 280.75948113934663 218.20094825163605 240.52518574435697 1 1 1.0013682915199638 0 0 0
31 2 285.59103101752953 218.07308629437404 238.437655413103 1 1 1.0013682915199638 0 0 0
32 2 289.111861278496 214.54417748066714 236.9300844293702 1 1 1.0013682915199638 0 0 0
33 2 291.6542315772418 212.5501753929853 234.1845865910715 1 1 1.0013682915199638 0 0 0
34 2 292.78179146529675 210.55454904886253 230.66501640288038 1 1 1.0013682915199638 0 0 0
35 2 291.07191630932664 209.2162006919795 226.95902345486127 1 1 1.0013682915199638 0 0 0
36 2 288.8921106397262 210.14576604305748 222.08083790015536 1 1 1.0013682915199638 0 0 0
37 2 289.38385618725766 210.31361068769039 218.23186141241607 1 1 1.0013682915199638 0 0 0
38 2 289.06073316063816 213.78048986873978 214.9374153682851 1 1 1.0013682915199638 0 0 0
39 2 290.70560222081895 217.2611311156807 212.04141701021862 1 1 1.0013682915199638 0 0 0
40 2 293.0703389052264 218.92849368848525 209.64539705022113 1 1 1.0013682915199638 0 0 0
41 2 295.34613729311104 219.42137092535657 206.27134366408697 1 1 1.0013682915199638 0 0 0
42 2 297.1120057434221 217.62097241273486 201.6239249526384 1 1 1.0013682915199638 0 0 0
43 2 296.85098959571474 214.8823892315476 197.71493638050322 1 1 1.0013682915199638 0 0 0
44 2 295.32264210526944 211.65328012866837 195.0544614365051 1 1 1.0013682915199638 0 0 0
45 2 292.5873821174775 210.21890816337012 191.7008648801972 1 1 1.0013682915199638 0 0 0
46 2 288.1309159193296 208.33917118097716 190.40013321353246 1 1 1.0013682915199638 0 0 0
47 2 283.5993947770749 208.30256436832994 190.88229516782945 1 1 1.0013682915199638 0 0 0
48 2 279.5639642730899 210.05775519098034 190.31969076581666 1 1 1.0013682915199638 0 0 0
49 2 276.51823156267847 212.35583632623153 188.44785102195695 1 1 1.0013682915199638 0 0 0
50 2 275.125136728455 214.4708562268834 186.357384177552 1 1 1.0013682915199638 0 0 0
51 2 272.9776328396227 216.39794232730605 182.13996598411197 1 1 1.0013682915199638 0 0 0
52 2 269.9312046198515 215.30121057492215 177.75095949041514 1 1 1.0013682915199638 0 0 0
53 2 267.5045130036205 213.90628312373232 174.14041096716215 1 1 1.0013682915199638 0 0 0
54 2 263.78844307280804 211.95341648278347 173.10011419462154 1 1 1.0013682915199638 0 0 0
55 2 258.8188661782659 210.11759774593511 173.3574643586416 1 1 1.0013682915199638 0 0 0
56 2 255.5835880832647 208.3070416954182 174.85247762965577 1 1 1.0013682915199638 0 0 0
57 2 251.74007213925032 207.83228051272158 177.11911152729448 1 1 1.0013682915199638 0 0 0
58 2 247.85758411715202 208.99197418262878 179.61492022463588 1 1 1.0013682915199638 0 0 0
59 2 245.4530648327812 212.17733676487086 182.23579706646714 1 1 1.0013682915199638 0 0 0
60 2 242.16720784236986 215.58657370063713 182.5402601231869 1 1 1.0013682915199638 0 0 0
61 2 238.72644646498406 218.73069494012793 181.4293288482304 1 1 1.0013682915199638 0 0 0
62 2 235.11526762289168 218.9902666452445 178.8766843508623 1 1 1.0013682915199638 0 0 0
63 2 230.01410926183706 218.28500109650324 178.1949566881475 1 1 1.0013682915199638 0 0 0
64 2 225.70996876002548 216.47657660211715 179.24109043765384 1 1 1.0013682915199638 0 0 0
65 2 223.4792612706599 212.9347917488554 181.01279783956363 1 1 1.0013682915199638 0 0 0
66 2 222.82049114944695 209.697622963162 184.35408755925687 1 1 1.0013682915199638 0 0 0
67 2 223.20023081215027 208.54167387885755 189.03552346589004 1 1 1.0013682915199638 0 0 0
68 2 223.43036649908973 207.6554704326175 192.84580542350423 1 1 1.0013682915199638 0 0 0
69 2 223.0306849265355 210.1108739720944 197.22581901884317 1 1 1.0013682915199638 0 0 0
70 2 221.53429982283723 212.23081966789712 200.63632996007254 1 1 1.0013682915199638 0 0 0
71 2 218.79603268864759 214.21905708924905 203.8141261731389 1 1 1.0013682915199638 0 0 0
72 2 215.00423970214868 214.86553578645857 205.44961866083113 1 1 1.0013682915199638 0 0 0
73 2 210.50063860720502 214.3174639156651 207.70250913332555 1 1 1.0013682915199638 0 0 0
74 2 207.6820137497125 211.5548217686222 209.58399686078897 1 1 1.0013682915199638 0 0 0
75 3 217.06171452901185 208.68168553458074 211.55453045995927 2 1 1.0013682915199638 0 0 0
76 3 216.16258446810238 205.61208606003473 208.370368138726 2 1 1.0013682915199638 0 0 0
77 3 213.97596578097253 204.43936648061268 204.41051542220885 2 1 1.0013682915199638 0 0 0
78 3 212.77704955022875 206.48854189279447 200.33728914933207 2 1 1.0013682915199638 0 0 0
79 3 212.97379560037754 209.5218955139265 195.93506067295294 2 1 1.0013682915199638 0 0 0
80 3 214.2125041885536 212.85433559357324 193.43402751705386 2 1 1.0013682915199638 0 0 0
81 3 217.48706749674017 215.61726832036695 191.99081927014038 2 1 1.0013682915199638 0 0 0
82 3 220.90230436770852 217.79635784524217 190.72911424917194 2 1 1.0013682915199638 0 0 0
83 3 225.63177337300675 218.1545121382492 189.71896062734945 2 1 1.0013682915199638 0 0 0
84 3 229.10734168185738 216.55719597786214 188.73278372939788 2 1 1.0013682915199638 0 0 0
85 3 231.75500334416077 213.5348216798397 186.86865351436532 2 1 1.0013682915199638 0 0 0
86 3 233.66544850612476 210.33568993164863 184.1098526494975 2 1 1.0013682915199638 0 0 0
87 3 234.20730901985056 209.25061235215972 179.9893168057589 2 1 1.0013682915199638 0 0 0
88 3 237.46992262974848 210.29177088417876 175.88253237509934 2 1 1.0013682915199638 0 0 0
89 3 241.39234510921548 211.83886129098212 173.15555570846175 2 1 1.0013682915199638 0 0 0
90 3 244.20131264550128 214.82801599244564 172.1981378208025 2 1 1.0013682915199638 0 0 0
91 3 248.9624889772971 216.28365819473942 172.42889916887754 2 1 1.0013682915199638 0 0 0
92 3 251.91163288206016 217.933452279842 174.98552958865685 2 1 1.0013682915199638 0 0 0
93 3 255.43915838945603 217.5056009038267 178.55078926592924 2 1 1.0013682915199638 0 0 0
94 3 257.82136361101425 215.2183084873298 181.3320404516313 2 1 1.0013682915199638 0 0 0
95 3 261.52801531510676 212.02261849545033 183.00319401364763 2 1 1.0013682915199638 0 0 0
96 3 264.9424832263109 208.6079824575321 182.57163627961086 2 1 1.0013682915199638 0 0 0
97 3 268.7236809990913 206.1547896823494 180.74901760422998 2 1 1.0013682915199638 0 0 0
98 3 273.6123349691061 206.05485560937046 181.3899738245671 2 1 1.0013682915199638 0 0 0
99 3 277.2392129814418 207.44998973715062 179.95531730576843 2 1 1.0013682915199638 0 0 0
100 3 281.34994316274015 210.30735179557485 179.87674756327684 2 1 1.0013682915199638 0 0 0
101 3 283.2351864681833 214.18722304286428 181.93237383820204 2 1 1.0013682915199638 0 0 0
102 3 285.0438434773794 216.9059520849112 185.12460059967896 2 1 1.0013682915199638 0 0 0
103 3 286.90247721552754 218.35651757139465 189.70376016620054 2 1 1.0013682915199638 0 0 0
104 3 286.9407044625557 217.85974345291874 194.54930012695434 2 1 1.0013682915199638 0 0 0
105 3 286.07864861519045 215.7130450855723 197.47407472281125 2 1 1.0013682915199638 0 0 0
106 3 287.75634597267987 213.30155237419112 201.45039579818834 2 1 1.0013682915199638 0 0 0
107 3 290.50064039310206 210.65783210436464 204.23646078144714 2 1 1.0013682915199638 0 0 0
108 3 293.56453411213107 209.40057228561002 205.88683163065144 2 1 1.0013682915199638 0 0 0
109 3 296.7207099260887 210.06233389168307 208.62159184473305 2 1 1.0013682915199638 0 0 0
110 3 298.7863469106353 212.00284353124874 213.68972342635138 2 1 1.0013682915199638 0 0 0
111 3 299.00176827923553 214.00791581438102 217.56325743634406 2 1 1.0013682915199638 0 0 0
112 3 297.4963728881691 215.907843725795 221.19735648410162 2 1 1.0013682915199638 0 0 0
113 3 294.4404174806143 218.90555930702567 222.91516554082452 2 1 1.0013682915199638 0 0 0
114 3 289.4434481545121 219.2385219192712 224.68893697296582 2 1 1.0013682915199638 0 0 0
115 3 286.3764499783938 218.11680477668767 226.38084630695565 2 1 1.0013682915199638 0 0 0
116 3 283.847241668192 214.24355015818506 227.9482462876989 2 1 1.0013682915199638 0 0 0
117 3 280.95672546839273 211.69054185628264 231.727949463596 2 1 1.0013682915199638 0 0 0
118 3 280.9424702478853 209.06279311142362 235.26309940881046 2 1 1.0013682915199638 0 0 0
119 3 281.3760852247713 208.16868683391988 240.11961078599435 2 1 1.0013682915199638 0 0 0
120 3 281.2944621766344 209.93592073930037 245.24342306179219 2 1 1.0013682915199638 0 0 0
121 3 280.145125060493 211.99717635467 248.8423642234375 2 1 1.0013682915199638 0 0 0
122 3 277.6861217058092 215.2664632771399 251.72516876193404 2 1 1.0013682915199638 0 0 0
123 3 273.4853859299208 218.05814614172135 253.57246669796123 2 1 1.0013682915199638 0 0 0
124 3 268.42042939219886 219.51253333085089 253.57980859110043 2 1 1.0013682915199638 0 0 0
125 3 265.6919659222452 219.45029857662436 251.60297052327428 2 1 1.0013682915199638 0 0 0
126 3 260.90948762746723 217.86180902277584 250.74262177351187 2 1 1.0013682915199638 0 0 0
127 3 257.89502278142186 214.32685775899384 250.9216852473857 2 1 1.0013682915199638 0 0 0
128 3 256.12198107613176 210.18104432651282 252.5773458659352 2 1 1.0013682915199638 0 0 0
129 3 253.75441686970933 207.9110183544168 255.11395432929288 2 1 1.0013682915199638 0 0 0
130 3 249.8370884537087 206.9993736167091 258.7226474471585 2 1 1.0013682915199638 0 0 0
131 3 246.26234781232188 208.34396747279294 260.3107213275707 2 1 1.0013682915199638 0 0 0
132 3 242.35177948876705 210.28725637035632 259.9459654327883 2 1 1.0013682915199638 0 0 0
133 3 237.85955512320263 212.68389500205117 258.11311573145304 2 1 1.0013682915199638 0 0 0
134 3 235.5370586637936 214.86935758319748 255.40695793394497 2 1 1.0013682915199638 0 0 0
135 3 232.50833855996135 215.0683616046255 252.11499780713547 2 1 1.0013682915199638 0 0 0
136 3 231.5848689373668 214.26374508757021 247.9474258289366 2 1 1.0013682915199638 0 0 0
137 3 229.9569563353655 213.03541178311522 243.8338289996327 2 1 1.0013682915199638 0 0 0
138 3 229.183449148648 209.79683199256914 241.5244298624259 2 1 1.0013682915199638 0 0 0
139 3 225.90983764077134 206.65361711464126 239.14872062030082 2 1 1.0013682915199638 0 0 0
140 3 222.28031899925404 204.91295485044057 238.2687110649236 2 1 1.0013682915199638 0 0 0
141 3 218.70640428777645 203.97605568211847 237.41108836239405 2 1 1.0013682915199638 0 0 0
142 3 214.61046697710418 205.23398075900917 235.52524070852263 2 1 1.0013682915199638 0 0 0
143 3 211.1444047278788 207.68042364647738 234.01315240461594 2 1 1.0013682915199638 0 0 0
144 3 210.07709276941483 210.34592107283453 229.43237662767177 2 1 1.0013682915199638 0 0 0
145 3 210.2522235010226 213.13236385001105 225.63083391363082 2 1 1.0013682915199638 0 0 0
146 3 212.42976712857933 213.90005015419067 220.7537165185583 2 1 1.0013682915199638 0 0 0
147 3 215.06596857385603 213.6443831447427 218.18479251875883 2 1 1.0013682915199638 0 0 0
148 3 216.507028431837 211.7256799381729 214.5076626575138 2 1 1.0013682915199638 0 0 0

Velocities

1 -0.001084197251064909 -0.0007596951131393611 5.3030211947285466e-05 -0.8915456643736169 -1.1480147051647236 0.06121962894646408
2 0.00022243154987286256 0.00038502535084238 0.0009422088724022196 -0.46650495986576274 -1.123999991510808 -0.9833651638182543
3 0.0011397225859347898 -0.00023305215062205362 -0.0009114170657608018 -0.4440195901929047 1.3995404706828858 -0.3721134427937381
4 -0.000752995297534243 -0.00040309172350078604 -0.00045359686404983267 -0.7693522501328386 -0.7914583970591166 -0.030257412694177487
5 -0.001001027072876075 0.0005716646723638132 -0.00036270968189285247 -0.9427508604164363 -0.8642214307146343 -0.47751177979328135
6 0.0008266477989471803 -0.0013452334497487093 -0.0015253588894936169 0.22637602279096478 -0.6628493237428267 0.39059729113986214
7 -0.0005054450145480937 0.00013307796648781784 0.0003099418826587387 -1.2402201754973712 -1.8948648285030818 0.11020479093472507
8 0.0011636705144510188 -0.0012067583678864145 0.0013401191966554767 0.5721916390400382 0.6781637739739098 1.260187388766152
9 -6.291545706036861e-05 -0.0008955046920164024 0.0002709162539535092 0.10824574285023787 0.13182637580528817 -0.738213131738181
10 0.0007070027191846363 -0.0012060395280671097 -0.0010641718842710139 0.2403569440726965 -0.4995269200060056 -0.4444017751027102
11 -0.001630007387129266 -5.29573462341689e-05 -0.0012502185233650566 -0.23004490512653797 0.6691022532744775 -0.5630388141360341
12 -0.000310346374190222 0.0007525903653703575 -0.0013734096370665656 -0.4927735364976808 -0.2065547011818422 0.2893039101090254
13 -0.0008723221052197287 0.0010917153833339185 -0.0001676238257055967 0.5743515594541063 0.013098530376480726 0.1939110734603762
14 0.0002905495828680227 -0.0009614144429512135 0.0005207577309147488 -0.4893077403016388 0.2660337485517029 -0.023728029201939678
15 0.000934039652917911 -0.00040180143762535433 -0.0006159447993337791 -0.3681625715597124 1.0997025354268695 -0.20436089987770728
16 0.00010981277604023435 0.0005258536000825176 0.002007903332884029 -0.5074149136241701 0.6481275257772245 -0.9927350082383201
17 7.343269745868228e-05 -0.000763757639117047 0.0018085928436989175 -0.405536262348397 -0.6939522115135679 1.360885117755661
18 -0.0011091814242722917 0.0004776383890428051 -0.0006405019936656311 1.1567526292092676 -0.6363684097118221 -0.8683651432703643
19 0.0008595567267770693 -0.00119038441434614 -0.0024401705377534717 -0.35117907158745265 -0.009472590031158709 1.5970657454375794
20 0.0011093166724140222 -0.0008445867734265836 0.0007491470248931967 -0.8012305726575887 1.366514324501166 1.1793907730573938
21 -4.265960455028914e-05 0.0005978809029771893 0.0010892329361828976 0.36292308475687984 -1.314678284332943 0.13130469062797326
22 -0.0002727476177298286 0.001321265385697305 -0.001714834135102746 -0.0610801010640157 -0.3716761741393731 0.43276622359178213
23 -0.0008513943113474338 -0.0005427680902639984 0.0008225662071123915 0.4351470339519968 0.5698180406335079 0.36321983609764785
24 0.0013414007846614159 0.0003015048588025316 -0.00014109916330832568 1.0382704289727513 -0.5059423966152413 -0.2641945814593599
25 0.0021202570611001106 0.0007141547439630984 -5.537405348014468e-05 0.710028511334164 0.8410973405951114 0.8435253736783448
26 0.0017858153918877831 0.000754311327838237 -0.00020014007800682376 1.2081265293238697 -0.7895046263482266 0.046200895529422484
27 0.0007058060312769437 2.854109410137707e-05 -0.0017221316267539697 0.5788970310293168 -0.3326184993325433 0.7304646775541502
28 0.0007437649922242526 0.0001895560776331533 -6.033488193219535e-05 -1.3171967676852656 -0.5997378383354316 1.0527743441849642
29 0.0011107716338581454 0.0003480556151649926 0.0016606760195733133 -0.2112653927650195 0.060902444643242216 1.8789917340706377
30 -6.779989736917011e-05 0.0005793994812118418 -0.0006578503510149097 -0.17370725677282486 1.6842607493827335 -0.7934941077920852
31 -0.0006465986382638729 0.0012072550601591148 0.00010187222741248986 0.11495971463838515 -1.1456257992226906 1.192552070126903
32 -0.00040207630479511776 0.0004485707181587104 -0.0009917708874260247 -0.3542286387829185 0.45261502791834624 1.0035955957502216
33 -0.0018230787743219285 -0.0011112739468874078 0.0005649732767343784 -1.558136336902405 0.26797004694426957 -1.6093817251744118
34 0.0007191696084343188 -0.0001802098372934262 -0.0023270505988872104 -0.2698808392305246 -0.7417489774370608 1.5428576154431821
35 0.0005292098527540821 -0.0010293342714503737 -0.000925071737707927 1.7909068638786532 0.363101533465441 0.3752454113591065
36 -0.0006945822177747592 -0.0004613702438323349 -0.00013790312280045647 1.20269571043036 -0.5511580483290438 0.19922920515484513
37 -0.0003574462545497114 0.0010158361849750888 -0.0007595983216001654 1.036022327610998 -1.2141995916234747 -0.9031543695298542
38 -0.0001666260760479331 -0.0004495645870766742 -0.0006649502878697556 -0.8698408561394234 -0.06016491683080709 0.22827605155036199
39 -0.0011217213790728417 -0.00017688643673886105 0.0005935246084440116 -0.42941167798112456 0.2606588119850237 -0.9772974578426415
40 0.00026765435360908075 -0.0006531408514234608 -0.0014687875939788126 0.9370319795591214 0.8054708141953606 0.10348912592604821
41 -0.001676046302054445 0.0012032728262810133 0.00010857920238630156 1.599699054141914 -0.5844132531877606 -0.12302034230348588
42 0.0013324112939964257 0.0007138757646003691 0.0008357998751750481 0.04704362717529476 -1.0013524685550919 -0.04143049023069584
43 0.0011994323933500685 -0.0008618508667885932 0.0007297248274954938 1.2903317377412273 0.8277565862178005 0.7106388742062721
44 0.0010367785733243248 -0.0013007510914724838 -0.00010278471728163893 0.6486859693645854 -0.7049899231273761 0.25453350830421373
45 -0.00022570593872785696 0.0001609134551850839 -0.000457639613756238 -0.21059880003676726 0.755792547761653 0.46971769647819706
46 0.00036026916042413684 -0.0006015547018657058 0.0002987078972092287 -0.0562210697058172 0.5438991878915234 -0.2628621398217542
47 -0.0002871380206911486 0.000195377286184453 -0.000749443864600094 -1.4668907123343085 1.0004565243696963 1.4189033809456415
48 -0.000989003620661268 -0.0008207502895999876 -6.128247506593116e-05 1.3794831388995727 0.5562851361119198 1.7070646652304942
49 0.0009892939845199268 -0.00137989974466866 -0.0008145162012593759 -0.6728458906253404 -0.41868269051307444 -0.3099439845257047
50 8.290963038180276e-05 0.0006782641673179488 -0.0004828926464756045 0.30062048358273163 1.0173820694528402 0.8741126639211108
51 0.0022103832442542846 -0.0012909588625010088 -4.819749800449545e-05 -1.317459477457373 -0.9164862734087755 1.243749743543047
52 -0.0005809345421558984 -0.0004910860202243381 -0.0008185760151757221 0.40314839685485704 -1.6294305003367655 1.498690764314671
53 -0.0005270019069248344 -0.0009670642436216599 0.000528323821932396 0.07495210161382598 -1.1241674161121924 -0.00022946698842365692
54 0.0009386467146536609 -0.00022648563183633427 8.022446202468054e-06 -0.7424406505407576 -0.7969923277765845 -0.6827494582310956
55 0.0008095978118669885 0.00028131014187843424 0.0018384424202053916 0.20401802025003918 0.4925642362896712 -0.11108579100262345
56 -4.8921845592387026e-05 -0.0011503848252027722 -0.0003185041109058752 0.10471479094235765 1.0621672842728989 0.5341697918281938
57 -0.00012387595267194945 -0.0007723427228207056 0.0007499845815313823 -0.44860010710981457 0.7694756551526931 -0.022639434994223908
58 0.000666075024169279 0.00012663460636285504 0.0002814948272003975 1.283262350932613 -0.9153974450858297 1.1242457648221056
59 -6.691282047291088e-05 0.0012487128728970625 0.0007331635520232404 -0.1184628547823374 0.13514567273644496 1.051899582220968
60 -0.0005761518169325974 -0.00078913629557157 0.0005399712813680042 1.2508275389278607 -0.6034142640495064 0.14814602685056003
61 -0.00075063184477237 0.0013494668373679676 0.0005737028797618567 0.36897436985879045 -1.2212115544332574 -0.901823197346453
62 -0.0005347740557712726 -0.0002660436747264957 -0.00015906411588644873 -1.5661016987833312 -0.0026917417760559947 1.5683396710168245
63 0.0005600907145902046 -0.0002410554329375047 0.0012337874437921268 0.7617035543354616 -0.958801076874394 0.6155217894909758
64 0.0002899866295972886 0.0002606698978751554 0.0010291297125093258 -0.8232522047602401 -1.8336669870687 -1.7788449286942387
65 0.0006679851417312916 0.0014991510074531416 -0.0006925712028817537 -0.2628615340264687 -1.2737315132069134 -0.49030365024264594
66 -0.00044882553016756683 0.001721380862370043 -0.0007205988068550668 0.7829252279788715 0.6220823788335215 -0.1593982928142065
67 0.00019053596223656991 -0.0003186465625687974 -4.764933556209656e-05 -0.8109064388201532 0.04095605641715475 0.00993594309402704
68 0.0011821313934498516 0.0012962396891083986 -0.0003217931761578556 -0.3318317595125717 -1.6396133497617833 0.020993293903356896
69 0.00016082746883108612 0.0009136601151420594 -7.480343606875934e-05 1.0036637670919621 -0.5513729402848934 0.4764014178184828
70 0.00015729237873884618 0.0008545889531472626 -0.0003892688938543745 -0.9066413909277269 0.9091031103494476 0.3752088086649737
71 0.0006090473843965216 0.00013941913206232145 -0.0001410975880814699 -0.9051127671463421 0.06684881562527711 -0.07833649928598117
72 -0.0006655384070395999 -0.0016976341783221795 0.0005692098552877179 -0.7021365989684886 -0.22979169387290707 -0.27058100787945033
73 -0.000143144641191275 -0.001714121059884153 0.0006798513423821301 0.6174595702169602 0.38852066157435017 -1.0027847501310985
74 0.0002427582334824997 -0.00039183994950139624 -0.0008783883282587753 0.154625347992307 -0.9875047206181705 1.257082167684143
75 0.0002353903879878286 4.8217548629359895e-05 0.0006094582556607789 -0.6642313583159534 -0.49940665409834967 -0.03315025316420479
76 -0.000670947839412608 0.00010793740117364264 -0.0005456808573225975 -1.194918422920756 0.06561813442744055 1.0426057296946543
77 0.0003359148010574048 0.0003548475240613287 0.00040326591870314864 -0.06490217676699385 -0.2294245823571533 1.289326323316754
78 -0.00030118526783533685 -0.0016585699552485351 0.0003340849191176712 -0.9570403549065567 0.41695482458187777 0.8975151641970518
79 -4.8480953724682227e-05 -0.0013818371250900706 -0.0005046053498974597 0.2589781565587433 -0.5778951818260245 -0.5539215892761843
80 -0.0013202763860785784 -8.807177127469825e-06 0.0006900771781583531 0.7024022121263147 0.4047264251793807 0.3173423398988851
81 0.0005345207142539816 -0.0002024000942081352 7.956431709443892e-05 0.20251218038194352 -1.503827383063283 0.27015568923633093
82 -0.0006039668526787535 -7.18055942377418e-05 0.0008128661567150891 -0.574209650892905 0.20288147203202433 -0.4700377360720019
83 0.0004407128228392059 0.00011629568842085697 -0.000616628087942799 0.01525300524400803 0.008238136460707094 -0.02409844083488031
84 -0.000648545903066481 0.0008395917285292471 0.00030717664674022446 1.1218852290577492 -1.103857464333332 0.06349112056492717
85 -0.0005958711855661791 -0.0005052422618933518 -0.0002845453562204106 1.2716515911387465 1.1735466170609625 0.43116605336208685
86 0.0006938648995543394 0.00015735945353342038 -0.0009962882463825512 0.16517205875647503 0.9484590775654972 1.0988314964314174
87 0.0003215870600758314 0.0003912655026437119 -0.0013284618995979963 1.5194075867105543 0.6875866390579177 -0.22611261624964282
88 0.0008130449188763447 -0.0004714438776382692 -0.0014613206957209655 1.0961737528055682 -0.8465154882454449 0.13342155018448576
89 0.00014890555910427423 -0.0006171367309124606 -0.00022987746677413429 0.35007463244504866 -0.16271658765380956 0.7313435761030811
90 -0.00026443623975679623 -0.0004783841493186734 -0.00025769628058327327 -1.055796289746361 1.3171903725653797 -0.3035241681376625
91 0.0007398697267840121 -0.00019639446208545127 -0.0008618582021370156 1.0487724799171771 1.3218457870782827 0.17198848834887884
92 0.000819139732396113 0.0004925618818332793 0.0004891106657838536 -1.0417163697027403 1.7675564538283643 -0.14717133294989979
93 0.0004028741035957809 -0.0003280286470140213 0.0013067241196195543 -0.002728794237394861 -0.34642108625695517 -0.12094488680244837
94 0.00034183276613559683 0.0001388915612059049 0.0004263953545367989 0.6800274391986143 1.003450083461365 0.36120010624617355
95 0.0011638767583766645 -0.00016189645401816892 -0.001542372684245396 -0.9954224681231605 -0.8310198493345288 0.05043110875985015
96 -0.00033876684668520226 0.0007928626713500632 -0.0002570487628567087 0.39401036491096614 2.151405205797644 0.2760617053929764
97 -0.001253266523232897 -0.0008133919979128022 -0.0003693004488923665 1.529989951198886 -0.7654862429820627 -0.18706132949058
98 -0.0013797404323123187 -0.00012209504168686052 0.0001435224434400456 1.2814403437670592 -0.9893406002583918 -0.5024405746650299
99 -0.00010231148961374842 0.001040372246811529 0.0002355492591273585 -0.14125810159186653 -0.5426386538346483 0.10863778742929679
100 -0.0005776987529914398 -0.0006194510416524435 -0.0006067641006578229 0.010882001659295499 -0.19433547402632176 -1.0289336768200754
101 -0.00038929629777689697 -0.0010025831850676355 -9.907577904864151e-05 -1.0427221971407308 0.5864400573047721 0.5526577448950046
102 -0.00022384892119977292 -0.0017702235164285664 -0.0008046250774693959 1.7879383694838449 -0.9846513916337035 -0.6478565469571028
103 -0.00017475274124618994 -0.0005572221416484048 0.0015414401066588066 0.2917889941981826 -2.0455703449982683 0.18047584353910479
104 0.0010173780431477308 0.0003760258654837539 -0.0006765314254509636 0.16327922846244636 -1.6309661969127185 0.36555748018019474
105 -0.0007785235075715036 -0.0007878007851621154 8.747089463870802e-05 0.3093007723900351 1.642912637393569 1.4582474295724852
106 0.0005041626506054346 -0.00038715848616698327 -0.00029476890670301036 0.06789265579784377 0.9187922797008125 0.23999214572851776
107 -0.0007718338618727731 0.0013964295133715315 0.000586801730533846 0.23686550207514717 0.39924600635481294 -0.7234306933116936
108 0.0011301501588415854 0.00031561185846414914 0.0002285868352105643 1.1584579731351556 -0.6728440633160931 -0.15179857127234408
109 0.0004282142433865848 0.0005481807833775808 -0.0014205539450290773 -0.34282579928800533 0.009412508357721894 -0.9192511452455392
110 0.0012029785859873523 -0.0009585267936851981 0.0001718536987931214 -1.1046218466554658 0.5608449214173798 1.187501668416145
111 0.0002491630737544627 0.0022876074775294557 0.0004318775685739083 -1.3527147789139895 2.0402488213440053 -0.06957735388752417
112 0.0013220486346633108 0.0013820033866552303 -0.0007180215532218647 -0.4394642309156816 -0.6141211272887708 -0.35421262008133675
113 -0.0003296179065635341 0.001138543209837535 0.0007838187930120367 0.1573028411478398 0.14920569883527937 0.3112699371258233
114 0.0005910275522232441 0.00010550741889323881 0.0019239078810461949 1.043410741987372 0.6991311103807617 -0.0343616960372397
115 0.0017781195861178184 -0.00146335134992308 -0.00047202449536229847 0.7767476068839853 1.366437842442984 -0.14911133801743495
116 0.000976789065507693 -0.0002037421713291537 -0.0008343074681910694 0.5908394079828148 -0.031054363414881984 0.5176535000848139
117 -0.0001886160701920735 0.0010312829398274053 0.0002940088391806802 1.6148369840867207 -0.05742722894427461 0.31704399769408204
118 -0.0002481730378021533 -0.0002011153508357644 -0.00011163974084691267 -0.03514943032144562 -0.26355730936972155 -0.8086336517257965
119 0.001247371462113546 0.00012092590210173233 -0.000589288699080204 0.9651133159875338 -0.39491501179424326 1.220840632307145
120 -0.0006010669878882121 0.00035047236323923047 0.0003536440103987529 0.7240648601384145 1.0029712254791459 1.8407801444462553
121 -0.0007717199587835323 0.00042027977642559105 -0.0004669641368859508 0.71986736876678 -1.7796464779961092 0.07211320702872355
122 0.0005711112372141504 -0.00029048688626018743 0.0005777595511632388 0.17241542171540322 1.2753664966624512 -0.04685066226168867
123 -0.0011462068605195249 0.0005425356463812028 0.0007728614731295553 0.07243616897206648 -0.267771781945215 0.5072644890919848
124 -4.223441129911622e-06 0.0013193364225652202 0.0016672293805913645 0.5896150222287045 -1.5090699313172389 -0.5644478606527843
125 0.0009504989961571995 0.000409136032497575 -7.880938276138584e-05 -1.7813381966889386 0.05232481258376172 -1.5147745747909411
126 -0.0007304501830548629 0.0009166204870372395 -0.0010548005404372074 0.1069849488333171 0.4070100891231744 -0.4233535542303504