LAMMPS (30 Mar 2026)
variable number	equal 6
variable ofreq	equal 1000
variable efreq	equal 100
variable T      equal 300.0
variable rhos   equal 0.2
variable nsteps equal 500000

units real

dimension 3

newton on

boundary  p p p

atom_style hybrid bond ellipsoid oxdna
WARNING: Atom style hybrid defines both, per-type and per-atom masses; both must be set, but only per-atom masses will be used (../atom_vec_hybrid.cpp:132)
atom_modify sort 0 8.518

# Pair interactions require lists of neighbours to be calculated
neighbor 17.036 bin
neigh_modify every 1 delay 0 check yes

fix Basepairs all property/atom i_idc ghost yes
read_data data.dsring2 fix Basepairs NULL Basepairs
Reading data file ...
  orthogonal box = (0 0 0) to (851 851 851)
  2 by 2 by 2 MPI processor grid
  reading atoms ...
  148 atoms
  reading velocities ...
  148 velocities
  scanning bonds ...
  1 = max bonds/atom
  148 ellipsoids
  orthogonal box = (0 0 0) to (851 851 851)
  2 by 2 by 2 MPI processor grid
  reading bonds ...
  148 bonds
Finding 1-2 1-3 1-4 neighbors ...
  special bond factors lj:    0        0        0       
  special bond factors coul:  0        0        0       
     2 = max # of 1-2 neighbors
     2 = max # of 1-3 neighbors
     4 = max # of 1-4 neighbors
     6 = max # of special neighbors
  special bonds CPU = 0.000 seconds
  read_data CPU = 0.004 seconds

set atom * mass 315.75
Setting atom values ...
  148 settings made for mass

group all type 1 4
148 atoms in group all

# oxDNA3 bond interactions - FENE backbone
bond_style hybrid oxdna3/fene
bond_coeff * oxdna3/fene oxdna3_real.cgdna
Reading oxdna3 potential (fene) file oxdna3_real.cgdna with DATE: 2026-03-26
special_bonds lj 0 1 1
Finding 1-2 1-3 1-4 neighbors ...
  special bond factors lj:    0        1        1       
  special bond factors coul:  0        0        0       
     2 = max # of 1-2 neighbors
     2 = max # of 1-3 neighbors
     4 = max # of 1-4 neighbors
     6 = max # of special neighbors
  special bonds CPU = 0.000 seconds

# oxDNA3 pair interactions
pair_style hybrid/overlay oxdna3/excv oxdna3/stk oxdna3/hbond oxdna3/xstk oxdna3/coaxstk oxdna3/dh
pair_coeff * * oxdna3/excv     oxdna3_real.cgdna
Reading oxdna3 potential (excv) file oxdna3_real.cgdna with DATE: 2026-03-26
pair_coeff * * oxdna3/stk      ${T} oxdna3_real.cgdna
pair_coeff * * oxdna3/stk      300 oxdna3_real.cgdna
Reading oxdna3 potential (stk) file oxdna3_real.cgdna with DATE: 2026-03-26
pair_coeff * * oxdna3/hbond    oxdna3_real.cgdna
Reading oxdna3 potential (hbond) file oxdna3_real.cgdna with DATE: 2026-03-26
pair_coeff 1 4 oxdna3/hbond    oxdna3_real.cgdna
Reading oxdna3 potential (hbond) file oxdna3_real.cgdna with DATE: 2026-03-26
pair_coeff 2 3 oxdna3/hbond    oxdna3_real.cgdna
Reading oxdna3 potential (hbond) file oxdna3_real.cgdna with DATE: 2026-03-26
pair_coeff * * oxdna3/xstk     oxdna3_real.cgdna
Reading oxdna3 potential (xstk) file oxdna3_real.cgdna with DATE: 2026-03-26
pair_coeff * * oxdna3/coaxstk  oxdna3_real.cgdna
Reading oxdna potential (coaxstk) file oxdna3_real.cgdna with DATE: 2026-03-26
pair_coeff * * oxdna3/dh       ${T} ${rhos} oxdna2_real.cgdna
pair_coeff * * oxdna3/dh       300 ${rhos} oxdna2_real.cgdna 
pair_coeff * * oxdna3/dh       300 0.2 oxdna2_real.cgdna 
Reading oxdna potential (dh) file oxdna2_real.cgdna with DATE: 2026-03-04

# NVE ensemble
fix 1 all nve/asphere
fix 2 all langevin ${T} ${T} 4263.83 457145 angmom 10
fix 2 all langevin 300 ${T} 4263.83 457145 angmom 10
fix 2 all langevin 300 300 4263.83 457145 angmom 10

timestep 8.527660860351011

#comm_style tiled
fix 3 all balance 1000 1.03 shift xyz 10 1.03
comm_modify cutoff 32.4

compute quat all property/atom quatw quati quatj quatk

compute erot all erotate/asphere
compute ekin all ke
compute epot all pe

compute ebond all bond
compute eexcv all pair oxdna3/excv
compute estk  all pair oxdna3/stk
compute ehbond all pair oxdna3/hbond
compute exstk all pair oxdna3/xstk
compute ecoaxstk all pair oxdna3/coaxstk
compute edh all pair oxdna3/dh

variable erot equal c_erot
variable ekin equal c_ekin
variable edyn equal c_erot+c_ekin
variable epot equal c_epot
variable etot equal c_erot+c_ekin+c_epot

variable ebond equal c_ebond[1]
variable eexcv equal c_eexcv
variable estk equal c_estk
variable ehbond equal c_ehbond
variable exstk equal c_exstk
variable ecoaxstk equal c_ecoaxstk
variable edh equal c_edh

fix 5 all print ${efreq} "$(step)  ekin = ${ekin} |  erot = ${erot} | edyn = ${edyn} | ebond = ${ebond} | eexcv = ${eexcv} | estk = ${estk} | ehbond = ${ehbond} | exstk = ${exstk} | ecoaxstk = ${ecoaxstk} | edh = ${edh} | epot = ${epot} | etot = ${etot}" screen yes
fix 5 all print 100 "$(step)  ekin = ${ekin} |  erot = ${erot} | edyn = ${edyn} | ebond = ${ebond} | eexcv = ${eexcv} | estk = ${estk} | ehbond = ${ehbond} | exstk = ${exstk} | ecoaxstk = ${ecoaxstk} | edh = ${edh} | epot = ${epot} | etot = ${etot}" screen yes

dump out all custom ${ofreq} out.${number}.lammpstrj id mol type x y z ix iy iz vx vy vz c_quat[1] c_quat[2] c_quat[3] c_quat[4] angmomx angmomy angmomz
dump out all custom 1000 out.${number}.lammpstrj id mol type x y z ix iy iz vx vy vz c_quat[1] c_quat[2] c_quat[3] c_quat[4] angmomx angmomy angmomz
dump out all custom 1000 out.6.lammpstrj id mol type x y z ix iy iz vx vy vz c_quat[1] c_quat[2] c_quat[3] c_quat[4] angmomx angmomy angmomz
dump_modify out sort id
dump_modify out format line "%d %d %d  %22.15le %22.15le %22.15le  %d %d %d  %22.15le %22.15le %22.15le  %22.15le %22.15le %22.15le %22.15le  %22.15le %22.15le %22.15le"

run ${nsteps}
run 500000
Parsing unique base pairing
Generated 0 of 6 mixed pair_coeff terms from geometric mixing rule
Neighbor list info ...
  update: every = 1 steps, delay = 0 steps, check = yes
  max neighbors/atom: 2000, page size: 100000
  master list distance cutoff = 48.032697
  ghost atom cutoff = 48.032697
  binsize = 24.016348, bins = 36 36 36
  5 neighbor lists, perpetual/occasional/extra = 5 0 0
  (1) pair oxdna3/excv, perpetual
      attributes: half, newton on
      pair build: half/bin/newton
      stencil: half/bin/3d
      bin: standard
  (2) pair oxdna3/hbond, perpetual, copy from (1)
      attributes: half, newton on
      pair build: copy
      stencil: none
      bin: none
  (3) pair oxdna3/xstk, perpetual, copy from (1)
      attributes: half, newton on
      pair build: copy
      stencil: none
      bin: none
  (4) pair oxdna3/coaxstk, perpetual, copy from (1)
      attributes: half, newton on
      pair build: copy
      stencil: none
      bin: none
  (5) pair oxdna3/dh, perpetual, copy from (1)
      attributes: half, newton on
      pair build: copy
      stencil: none
      bin: none
WARNING: Communication cutoff adjusted to 48.03269686950012 (../comm.cpp:703)
0  ekin = 117.710013213207 |  erot = 127.571676566791 | edyn = 245.281689779998 | ebond = 95.4014443517364 | eexcv = 0 | estk = -848.034007260055 | ehbond = 0 | exstk = -112.924859345649 | ecoaxstk = 0 | edh = 29.4035903453316 | epot = -836.153831908636 | etot = -590.872142128638
Per MPI rank memory allocation (min/avg/max) = 8.925 | 8.956 | 9.025 Mbytes
   Step          Temp          E_pair         E_mol          TotEng         Press          Volume    
         0   268.63449     -931.55528      95.401444     -718.44382      0.0091374094   6.1629505e+08
100  ekin = 142.2291205034 |  erot = 140.896344461486 | edyn = 283.125464964886 | ebond = 50.4074272220413 | eexcv = 0 | estk = -809.335471078237 | ehbond = -1.63870131675386 | exstk = -132.111879676424 | ecoaxstk = 0 | edh = 29.7289461705028 | epot = -862.94967867887 | etot = -579.824213713984
200  ekin = 142.275812335802 |  erot = 129.065994972254 | edyn = 271.341807308055 | ebond = 42.5457472391415 | eexcv = 0 | estk = -824.712988744692 | ehbond = -4.92394718893584 | exstk = -115.063470750521 | ecoaxstk = 0 | edh = 31.0742883866556 | epot = -871.080371058352 | etot = -599.738563750296
300  ekin = 145.112692024715 |  erot = 118.225431894161 | edyn = 263.338123918875 | ebond = 45.316031763509 | eexcv = 2.56201519626733 | estk = -838.185105700117 | ehbond = -4.59413741585401 | exstk = -108.579408290369 | ecoaxstk = 0 | edh = 31.701436722571 | epot = -871.779167723993 | etot = -608.441043805117
400  ekin = 146.235122774417 |  erot = 146.296804853685 | edyn = 292.531927628103 | ebond = 32.1985392860756 | eexcv = 0 | estk = -855.302218772101 | ehbond = -6.79435044461856 | exstk = -111.243224572521 | ecoaxstk = 0 | edh = 32.4792543975863 | epot = -908.662000105579 | etot = -616.130072477477
500  ekin = 140.597099688342 |  erot = 116.786826043679 | edyn = 257.383925732021 | ebond = 37.3648620010339 | eexcv = 0 | estk = -841.329786248351 | ehbond = -8.35044071382132 | exstk = -107.432468167139 | ecoaxstk = 0 | edh = 32.9038600841706 | epot = -886.843973044107 | etot = -629.460047312086
600  ekin = 157.828433929035 |  erot = 127.93532271174 | edyn = 285.763756640774 | ebond = 38.8984629126106 | eexcv = 0 | estk = -851.021578082704 | ehbond = -18.566107339708 | exstk = -103.265051198515 | ecoaxstk = 0 | edh = 32.8278152996298 | epot = -901.126458408686 | etot = -615.362701767912
700  ekin = 129.364880463802 |  erot = 135.517665429351 | edyn = 264.882545893153 | ebond = 44.8975754264118 | eexcv = 0 | estk = -857.203161998626 | ehbond = -18.1153353185975 | exstk = -103.181378318591 | ecoaxstk = 0 | edh = 33.2939414323413 | epot = -900.308358777062 | etot = -635.425812883909
800  ekin = 132.590333934634 |  erot = 152.077381915936 | edyn = 284.667715850569 | ebond = 37.5376047037973 | eexcv = 0 | estk = -844.283307157915 | ehbond = -25.3123588637436 | exstk = -99.0213692774352 | ecoaxstk = 0 | edh = 34.0909178641176 | epot = -896.988512731179 | etot = -612.32079688061
900  ekin = 159.056663742451 |  erot = 135.509572332453 | edyn = 294.566236074904 | ebond = 46.5028524050982 | eexcv = 0 | estk = -838.275284766111 | ehbond = -37.8859373341808 | exstk = -89.3130118330562 | ecoaxstk = 0 | edh = 33.4900318578272 | epot = -885.481349670422 | etot = -590.915113595518
1000  ekin = 140.21188725236 |  erot = 135.438809127841 | edyn = 275.650696380201 | ebond = 47.9943844323653 | eexcv = 0.0604852202145946 | estk = -838.435804119287 | ehbond = -39.5705378446951 | exstk = -107.20882940452 | ecoaxstk = 0 | edh = 32.6171516492717 | epot = -904.54315006665 | etot = -628.892453686449
1100  ekin = 143.374525240756 |  erot = 126.016874253985 | edyn = 269.391399494741 | ebond = 46.1039934155774 | eexcv = 0 | estk = -847.43276103243 | ehbond = -42.4327489171243 | exstk = -96.9639566998816 | ecoaxstk = 0 | edh = 32.180324157972 | epot = -908.545149075887 | etot = -639.153749581146
1200  ekin = 128.922078226405 |  erot = 129.049074456051 | edyn = 257.971152682456 | ebond = 52.1070418279811 | eexcv = 0 | estk = -832.449867464237 | ehbond = -57.0320979949998 | exstk = -101.011686358184 | ecoaxstk = 0 | edh = 31.3879752908857 | epot = -906.998634698554 | etot = -649.027482016098
1300  ekin = 123.997103597823 |  erot = 136.023534744804 | edyn = 260.020638342628 | ebond = 48.0192072087713 | eexcv = 0 | estk = -848.643123223961 | ehbond = -66.8403461253391 | exstk = -106.409047705894 | ecoaxstk = 0 | edh = 32.0075475878381 | epot = -941.865762258585 | etot = -681.845123915958
1400  ekin = 134.563498727165 |  erot = 151.61118137433 | edyn = 286.174680101494 | ebond = 34.7172183933153 | eexcv = 0 | estk = -871.421222333901 | ehbond = -62.7551412406918 | exstk = -116.621979287821 | ecoaxstk = 0 | edh = 32.4538384757306 | epot = -983.627285993368 | etot = -697.452605891874
1500  ekin = 122.071719839768 |  erot = 135.853288266279 | edyn = 257.925008106048 | ebond = 43.6355580667922 | eexcv = 0 | estk = -883.277070159388 | ehbond = -68.8367065088578 | exstk = -112.502843629595 | ecoaxstk = 0 | edh = 32.8116703516222 | epot = -988.169391879427 | etot = -730.244383773379
1600  ekin = 140.719518260384 |  erot = 131.082672535052 | edyn = 271.802190795436 | ebond = 42.6693579450314 | eexcv = 0 | estk = -871.552510976259 | ehbond = -73.075483380917 | exstk = -118.030801494985 | ecoaxstk = 0 | edh = 33.1864008858747 | epot = -986.803037021256 | etot = -715.000846225819
1700  ekin = 115.734135278647 |  erot = 145.09031391943 | edyn = 260.824449198078 | ebond = 43.512949772012 | eexcv = 0 | estk = -875.654409177337 | ehbond = -77.3252105465728 | exstk = -117.920797809207 | ecoaxstk = 0 | edh = 33.6509851861905 | epot = -993.736482574915 | etot = -732.912033376837
1800  ekin = 130.704722670513 |  erot = 137.626246121339 | edyn = 268.330968791852 | ebond = 40.1535964874423 | eexcv = 0 | estk = -870.693477948194 | ehbond = -66.4435621992803 | exstk = -124.582317075271 | ecoaxstk = 0 | edh = 33.7145151836913 | epot = -987.851245551611 | etot = -719.520276759759
1900  ekin = 140.289473786423 |  erot = 125.868944228329 | edyn = 266.158418014752 | ebond = 40.4638760366825 | eexcv = 0 | estk = -866.373404418823 | ehbond = -67.8852454946715 | exstk = -130.300158995389 | ecoaxstk = 0 | edh = 33.906397581259 | epot = -990.188535290942 | etot = -724.03011727619
2000  ekin = 137.865079616666 |  erot = 120.558617555528 | edyn = 258.423697172194 | ebond = 41.8618408169459 | eexcv = 0 | estk = -850.171085381889 | ehbond = -72.5163643774286 | exstk = -120.520877212166 | ecoaxstk = 0 | edh = 34.3933224208574 | epot = -966.95316373368 | etot = -708.529466561486
2100  ekin = 139.346412745754 |  erot = 144.634364685521 | edyn = 283.980777431275 | ebond = 37.3457444530783 | eexcv = 0 | estk = -877.084557259418 | ehbond = -71.3428836863155 | exstk = -119.828753247042 | ecoaxstk = 0 | edh = 35.6159967573022 | epot = -995.294452982395 | etot = -711.31367555112
2200  ekin = 128.572646254551 |  erot = 115.998602788441 | edyn = 244.571249042991 | ebond = 51.6026968192263 | eexcv = 0 | estk = -877.98420201716 | ehbond = -72.0134107426712 | exstk = -113.745847642121 | ecoaxstk = 0 | edh = 36.086758841589 | epot = -976.054004741138 | etot = -731.482755698146
2300  ekin = 136.235847953287 |  erot = 146.238107882938 | edyn = 282.473955836225 | ebond = 41.9992579878024 | eexcv = 0.0234096209552478 | estk = -854.625997577316 | ehbond = -74.3397458751939 | exstk = -118.467983066464 | ecoaxstk = 0 | edh = 35.3198330993622 | epot = -970.091225810853 | etot = -687.617269974628
2400  ekin = 135.030534006772 |  erot = 148.073993794202 | edyn = 283.104527800974 | ebond = 45.9092768165878 | eexcv = 0 | estk = -854.025457968778 | ehbond = -66.4343849602646 | exstk = -116.696824021207 | ecoaxstk = 0 | edh = 34.4508944853412 | epot = -956.796495648321 | etot = -673.691967847347
2500  ekin = 131.140055001989 |  erot = 130.595785551703 | edyn = 261.735840553692 | ebond = 40.6643089916865 | eexcv = 0 | estk = -851.734447635584 | ehbond = -78.0169228258232 | exstk = -114.314029583479 | ecoaxstk = 0 | edh = 34.8700614423377 | epot = -968.531029610863 | etot = -706.795189057171
2600  ekin = 122.893038329979 |  erot = 139.299831068875 | edyn = 262.192869398854 | ebond = 39.3959385644742 | eexcv = 0 | estk = -840.55860534543 | ehbond = -65.6338022496307 | exstk = -120.598255519405 | ecoaxstk = 0 | edh = 34.6341320506066 | epot = -952.760592499385 | etot = -690.567723100531
2700  ekin = 140.167193759059 |  erot = 115.308102062014 | edyn = 255.475295821074 | ebond = 40.5600802236774 | eexcv = 0 | estk = -841.581656179374 | ehbond = -83.0854988481921 | exstk = -119.100994700376 | ecoaxstk = 0 | edh = 35.0177017978319 | epot = -968.190367706432 | etot = -712.715071885359
2800  ekin = 159.518108221068 |  erot = 157.629287581174 | edyn = 317.147395802241 | ebond = 41.3601090747381 | eexcv = 0 | estk = -853.924497908206 | ehbond = -74.8238511002648 | exstk = -129.97390259337 | ecoaxstk = 0 | edh = 35.0243785396528 | epot = -982.33776398745 | etot = -665.190368185208
2900  ekin = 157.220403357934 |  erot = 145.068185214493 | edyn = 302.288588572427 | ebond = 41.7725044686998 | eexcv = 0 | estk = -852.659141359865 | ehbond = -76.3206637478996 | exstk = -124.605709795755 | ecoaxstk = -0.307517155708484 | edh = 35.3936814793916 | epot = -976.726846111136 | etot = -674.438257538709
3000  ekin = 142.794183511463 |  erot = 140.724396520496 | edyn = 283.51858003196 | ebond = 46.6476655163385 | eexcv = 0.44424489682552 | estk = -842.81635540479 | ehbond = -85.3812422600638 | exstk = -114.029169254073 | ecoaxstk = -2.04298845728442 | edh = 36.5374666089316 | epot = -960.640378354116 | etot = -677.121798322156
3100  ekin = 141.238279523984 |  erot = 127.056472995609 | edyn = 268.294752519593 | ebond = 46.804009951483 | eexcv = 1.92476478495288 | estk = -859.625246186481 | ehbond = -79.511573217459 | exstk = -115.470391368817 | ecoaxstk = -5.69818067417741 | edh = 36.6697461759098 | epot = -974.90687053459 | etot = -706.612118014997
3200  ekin = 123.906327569554 |  erot = 124.609360011619 | edyn = 248.515687581173 | ebond = 44.9681409713635 | eexcv = 0.00217563336478925 | estk = -854.018928589233 | ehbond = -77.827211428891 | exstk = -122.812158370164 | ecoaxstk = -3.21828122845819 | edh = 36.3836213691766 | epot = -976.522641642842 | etot = -728.006954061669
3300  ekin = 136.130923590205 |  erot = 141.536116437949 | edyn = 277.667040028154 | ebond = 37.7175082877186 | eexcv = 0 | estk = -863.322886937424 | ehbond = -82.2462508357532 | exstk = -126.507385377609 | ecoaxstk = -3.83757072601522 | edh = 36.1286998956028 | epot = -1002.06788569348 | etot = -724.400845665326
3400  ekin = 135.138489878442 |  erot = 127.985550320147 | edyn = 263.124040198589 | ebond = 36.6850203815577 | eexcv = 0.0812828254714317 | estk = -848.494010624959 | ehbond = -77.6367407024034 | exstk = -113.117448663224 | ecoaxstk = -8.14247620285144 | edh = 36.0546251709726 | epot = -974.569747815436 | etot = -711.445707616847
3500  ekin = 154.679282254254 |  erot = 143.914791227146 | edyn = 298.5940734814 | ebond = 39.997356876008 | eexcv = 0.222095028866686 | estk = -885.939875284025 | ehbond = -82.3642291035205 | exstk = -115.884980210383 | ecoaxstk = -9.34307388253269 | edh = 36.5234728421164 | epot = -1016.78923373347 | etot = -718.195160252071
3600  ekin = 140.615931781531 |  erot = 138.848723164289 | edyn = 279.464654945819 | ebond = 40.9564504491699 | eexcv = 0 | estk = -864.252603620631 | ehbond = -85.8719768253993 | exstk = -120.987135243702 | ecoaxstk = -11.0972282411736 | edh = 37.1049047769365 | epot = -1004.1475887048 | etot = -724.68293375898
3700  ekin = 123.816934698777 |  erot = 151.868398061464 | edyn = 275.685332760242 | ebond = 34.7910385766645 | eexcv = 0.353075062929368 | estk = -869.085295271588 | ehbond = -74.1961799029989 | exstk = -126.278613866319 | ecoaxstk = -10.9591228732672 | edh = 37.5602546801769 | epot = -1007.8148435944 | etot = -732.129510834161
3800  ekin = 118.568400085275 |  erot = 123.679420284559 | edyn = 242.247820369834 | ebond = 38.1588968439783 | eexcv = 0 | estk = -871.141015486276 | ehbond = -90.4072340494975 | exstk = -115.094356453844 | ecoaxstk = -14.3445301646509 | edh = 36.9115596277661 | epot = -1015.91667968252 | etot = -773.668859312691
3900  ekin = 129.136843460887 |  erot = 129.836398842348 | edyn = 258.973242303235 | ebond = 41.8385786222923 | eexcv = 0.173694259921362 | estk = -860.352483534684 | ehbond = -89.4304623071631 | exstk = -123.643218284949 | ecoaxstk = -10.3859915791892 | edh = 36.4309466080513 | epot = -1005.36893621572 | etot = -746.395693912486
4000  ekin = 129.191421512508 |  erot = 137.695524698558 | edyn = 266.886946211066 | ebond = 45.3353963791009 | eexcv = 0.655255543502585 | estk = -873.531876586243 | ehbond = -92.0508004675717 | exstk = -129.608422876007 | ecoaxstk = -11.7612081844945 | edh = 35.7547874290565 | epot = -1025.20686876266 | etot = -758.31992255159
4100  ekin = 118.861723467481 |  erot = 130.05903017071 | edyn = 248.920753638191 | ebond = 39.4053965979143 | eexcv = 0 | estk = -861.385473268597 | ehbond = -95.0331822248519 | exstk = -127.665079783636 | ecoaxstk = -9.31392449124173 | edh = 35.7720483169103 | epot = -1018.2202148535 | etot = -769.299461215311
4200  ekin = 123.986108753641 |  erot = 135.079093004845 | edyn = 259.065201758487 | ebond = 38.7661992725039 | eexcv = 0 | estk = -866.908331860822 | ehbond = -93.8243255836133 | exstk = -141.785892709984 | ecoaxstk = -7.79930415677525 | edh = 35.8923896234893 | epot = -1035.6592654152 | etot = -776.594063656715
4300  ekin = 131.17175361379 |  erot = 141.030903935552 | edyn = 272.202657549342 | ebond = 38.7375359871281 | eexcv = 0 | estk = -863.839248312855 | ehbond = -95.4381043163887 | exstk = -130.112994826175 | ecoaxstk = -7.29016299595042 | edh = 35.695091689097 | epot = -1022.24788277514 | etot = -750.045225225802
4400  ekin = 121.424148427306 |  erot = 154.110535094739 | edyn = 275.534683522045 | ebond = 49.0088510502137 | eexcv = 0 | estk = -880.256816897089 | ehbond = -86.6820937036453 | exstk = -135.859922827488 | ecoaxstk = -10.8037131952462 | edh = 36.0460477294786 | epot = -1028.54764784378 | etot = -753.012964321731
4500  ekin = 130.940823690472 |  erot = 136.29581043694 | edyn = 267.236634127412 | ebond = 40.7712456974295 | eexcv = 0 | estk = -875.203580225611 | ehbond = -89.6299975646417 | exstk = -133.327556596234 | ecoaxstk = -6.17101842390346 | edh = 35.8436683371486 | epot = -1027.71723877581 | etot = -760.4806046484
4600  ekin = 132.405413647724 |  erot = 113.563988920376 | edyn = 245.9694025681 | ebond = 41.1838623714078 | eexcv = 0 | estk = -842.704065874848 | ehbond = -105.087956426472 | exstk = -130.914705885504 | ecoaxstk = -7.48274089368691 | edh = 35.7158192328186 | epot = -1009.28978747628 | etot = -763.320384908184
4700  ekin = 139.19526946352 |  erot = 133.033924128457 | edyn = 272.229193591977 | ebond = 43.9525405782712 | eexcv = 0 | estk = -855.63757414234 | ehbond = -90.4179471878857 | exstk = -120.860219911375 | ecoaxstk = -9.90478994832203 | edh = 36.5044651856358 | epot = -996.363525426016 | etot = -724.134331834039
4800  ekin = 136.89631077303 |  erot = 123.198999393639 | edyn = 260.095310166669 | ebond = 49.1533295526193 | eexcv = 0 | estk = -855.878784477675 | ehbond = -89.9761562960222 | exstk = -133.466574871908 | ecoaxstk = -11.2788580237748 | edh = 36.2869963237206 | epot = -1005.16004779304 | etot = -745.064737626371
4900  ekin = 147.06719502505 |  erot = 129.398043985289 | edyn = 276.465239010339 | ebond = 42.7505818770224 | eexcv = 0 | estk = -845.173665984407 | ehbond = -88.1515174954673 | exstk = -154.171925656556 | ecoaxstk = -11.3322437027875 | edh = 36.0741313827937 | epot = -1020.0046395794 | etot = -743.539400569062
5000  ekin = 131.377588988167 |  erot = 128.38607032228 | edyn = 259.763659310448 | ebond = 39.2890652695751 | eexcv = 0 | estk = -834.200720038269 | ehbond = -93.6859338530135 | exstk = -141.855191887689 | ecoaxstk = -4.68880084919957 | edh = 35.8413432458858 | epot = -999.30023811271 | etot = -739.536578802262
5100  ekin = 136.821174831997 |  erot = 138.297622997985 | edyn = 275.118797829982 | ebond = 43.7293971827866 | eexcv = 0 | estk = -848.037570057309 | ehbond = -104.527117200973 | exstk = -145.670709193336 | ecoaxstk = -5.97696185924158 | edh = 36.2892559627791 | epot = -1024.19370516529 | etot = -749.074907335313
5200  ekin = 129.310610961256 |  erot = 130.214584395164 | edyn = 259.52519535642 | ebond = 46.048401413977 | eexcv = 0 | estk = -821.917225051103 | ehbond = -107.237576476936 | exstk = -138.256327734089 | ecoaxstk = -8.36880619196332 | edh = 36.8529217372395 | epot = -992.878612302875 | etot = -733.353416946455
5300  ekin = 131.143361408834 |  erot = 143.160101295278 | edyn = 274.303462704112 | ebond = 37.1599154312092 | eexcv = 0 | estk = -834.405177783467 | ehbond = -101.603899135049 | exstk = -129.815545331633 | ecoaxstk = -8.4750737919143 | edh = 37.4960114420384 | epot = -999.643769168815 | etot = -725.340306464704
5400  ekin = 122.999451530328 |  erot = 127.863394423173 | edyn = 250.862845953501 | ebond = 45.6902969146069 | eexcv = 0 | estk = -828.778683006263 | ehbond = -110.72460839963 | exstk = -124.249753187506 | ecoaxstk = -11.8096577659599 | edh = 38.2571677766473 | epot = -991.615237668104 | etot = -740.752391714603
5500  ekin = 141.302078858387 |  erot = 131.19706744828 | edyn = 272.499146306667 | ebond = 54.2506942277294 | eexcv = 0 | estk = -836.89479132386 | ehbond = -107.640243174902 | exstk = -120.616034630555 | ecoaxstk = -12.0867968425336 | edh = 38.463592989684 | epot = -984.523578754437 | etot = -712.024432447771
5600  ekin = 140.46121470529 |  erot = 138.538202966811 | edyn = 278.999417672101 | ebond = 45.6471083224865 | eexcv = 0 | estk = -855.658271987763 | ehbond = -119.249760981082 | exstk = -118.529681022559 | ecoaxstk = -7.39067440365861 | edh = 38.734970477966 | epot = -1016.44630959461 | etot = -737.446891922509
5700  ekin = 138.098543019498 |  erot = 146.593224175411 | edyn = 284.691767194909 | ebond = 37.528944910667 | eexcv = 0 | estk = -870.061713773484 | ehbond = -110.371250051495 | exstk = -123.185333869873 | ecoaxstk = -14.7317003247419 | edh = 37.5900576373243 | epot = -1043.2309954716 | etot = -758.539228276693
5800  ekin = 132.447211632564 |  erot = 122.512352763174 | edyn = 254.959564395738 | ebond = 44.2029928848938 | eexcv = 0.128758680002359 | estk = -877.058424125057 | ehbond = -110.634905120575 | exstk = -120.569496585666 | ecoaxstk = -13.0087420525258 | edh = 38.2482572658744 | epot = -1038.69155905305 | etot = -783.731994657316
5900  ekin = 121.337869277636 |  erot = 119.587839605412 | edyn = 240.925708883049 | ebond = 51.823193421948 | eexcv = 0 | estk = -872.206837752684 | ehbond = -113.080588682705 | exstk = -126.763226969096 | ecoaxstk = -10.9609614098059 | edh = 38.8825701296721 | epot = -1032.30585126267 | etot = -791.380142379622
6000  ekin = 142.930314230995 |  erot = 127.653777552077 | edyn = 270.584091783072 | ebond = 39.461821613244 | eexcv = 0 | estk = -854.482742359774 | ehbond = -119.882912369232 | exstk = -131.724551963644 | ecoaxstk = -11.60939455953 | edh = 38.3322206014172 | epot = -1039.90555903752 | etot = -769.321467254447
6100  ekin = 140.35293507682 |  erot = 128.114404806015 | edyn = 268.467339882835 | ebond = 45.1685034321982 | eexcv = 0.558747194332318 | estk = -858.543697254866 | ehbond = -105.009652510107 | exstk = -133.326923185464 | ecoaxstk = -11.4109039127247 | edh = 38.4724811560913 | epot = -1024.09144508054 | etot = -755.624105197705
6200  ekin = 130.709599389464 |  erot = 136.573227435544 | edyn = 267.282826825008 | ebond = 37.6518152860326 | eexcv = 0 | estk = -866.337788926052 | ehbond = -115.78169721293 | exstk = -129.551541870006 | ecoaxstk = -9.83821942250479 | edh = 37.5041778081564 | epot = -1046.3532543373 | etot = -779.070427512296
6300  ekin = 132.51809913761 |  erot = 123.264408873416 | edyn = 255.782508011026 | ebond = 40.3130056104115 | eexcv = 3.76994130603725 | estk = -869.47956362643 | ehbond = -120.228785372355 | exstk = -120.224697280105 | ecoaxstk = -11.9463729852904 | edh = 37.7391808177621 | epot = -1040.05729152997 | etot = -784.274783518944
6400  ekin = 127.184376412703 |  erot = 151.312247926357 | edyn = 278.49662433906 | ebond = 33.6144851402561 | eexcv = 0 | estk = -856.078871008743 | ehbond = -106.643684771004 | exstk = -133.765319129703 | ecoaxstk = -15.2866114635639 | edh = 37.1029792480056 | epot = -1041.05702198475 | etot = -762.560397645692
6500  ekin = 118.75250339159 |  erot = 138.413765654555 | edyn = 257.166269046145 | ebond = 48.5979770695012 | eexcv = 0.00941039920967464 | estk = -847.234252265874 | ehbond = -114.510840076954 | exstk = -132.248727348228 | ecoaxstk = -11.9726493114813 | edh = 35.7358035086197 | epot = -1021.62327802521 | etot = -764.457008979063
6600  ekin = 125.46062783243 |  erot = 139.58919644612 | edyn = 265.04982427855 | ebond = 42.933299766724 | eexcv = 0.014062051494275 | estk = -857.227036880726 | ehbond = -127.431670770965 | exstk = -128.268336243723 | ecoaxstk = -12.7788005366911 | edh = 35.2406047749427 | epot = -1047.51787783894 | etot = -782.468053560394
6700  ekin = 122.099602424849 |  erot = 136.476022105232 | edyn = 258.575624530082 | ebond = 42.6504609121105 | eexcv = 0.155604139419406 | estk = -853.085756366215 | ehbond = -133.428674160863 | exstk = -136.472732740627 | ecoaxstk = -12.6026675614399 | edh = 35.180337157136 | epot = -1057.60342862048 | etot = -799.027804090398
6800  ekin = 112.358448299755 |  erot = 130.835209346799 | edyn = 243.193657646554 | ebond = 40.9088288653479 | eexcv = 0 | estk = -857.396064745227 | ehbond = -132.827766417662 | exstk = -130.316554731045 | ecoaxstk = -10.3493537288584 | edh = 35.6606130057588 | epot = -1054.32029775169 | etot = -811.126640105132
6900  ekin = 143.494480260744 |  erot = 122.773201927115 | edyn = 266.267682187858 | ebond = 35.0142502812127 | eexcv = 0 | estk = -859.679438084291 | ehbond = -132.254672575224 | exstk = -134.776252117923 | ecoaxstk = -10.9420860310086 | edh = 36.4086029401776 | epot = -1066.22959558706 | etot = -799.961913399198
7000  ekin = 139.389348923081 |  erot = 140.393031789254 | edyn = 279.782380712335 | ebond = 46.5478059512252 | eexcv = 0 | estk = -845.722473298946 | ehbond = -135.711861858538 | exstk = -127.827732012709 | ecoaxstk = -12.9380085914476 | edh = 36.4574259621557 | epot = -1039.19484384826 | etot = -759.412463135925
7100  ekin = 135.743742463356 |  erot = 132.163239859606 | edyn = 267.906982322962 | ebond = 43.5932126371853 | eexcv = 0.43670780541948 | estk = -843.747041139289 | ehbond = -149.247918616692 | exstk = -134.590320302876 | ecoaxstk = -11.6258621040327 | edh = 35.7895386377551 | epot = -1059.39168308253 | etot = -791.484700759567
7200  ekin = 138.759047496356 |  erot = 135.8835062178 | edyn = 274.642553714157 | ebond = 37.5289239337203 | eexcv = 0 | estk = -838.905028044563 | ehbond = -136.895475947532 | exstk = -131.654810814424 | ecoaxstk = -6.97578750938619 | edh = 35.2603221508491 | epot = -1041.64185623134 | etot = -766.99930251718
7300  ekin = 133.849404342975 |  erot = 135.19821727156 | edyn = 269.047621614535 | ebond = 36.8482342053542 | eexcv = 0 | estk = -828.464578917434 | ehbond = -133.530908877734 | exstk = -133.219378910511 | ecoaxstk = -8.78496761630392 | edh = 35.3051962498337 | epot = -1031.8464038668 | etot = -762.79878225226
7400  ekin = 137.145714993769 |  erot = 125.759010173439 | edyn = 262.904725167208 | ebond = 44.5037091339153 | eexcv = 0 | estk = -846.388247994709 | ehbond = -135.197954898693 | exstk = -135.437955565509 | ecoaxstk = -8.99996347443986 | edh = 35.273782090151 | epot = -1046.24663070928 | etot = -783.341905542076
7500  ekin = 130.097719325592 |  erot = 137.415990603418 | edyn = 267.51370992901 | ebond = 40.9498679905484 | eexcv = 0 | estk = -826.967505711741 | ehbond = -142.215101110586 | exstk = -128.935655029617 | ecoaxstk = -11.7282016584639 | edh = 34.5078482406918 | epot = -1034.38874727917 | etot = -766.875037350158
7600  ekin = 129.256030228656 |  erot = 130.01472196992 | edyn = 259.270752198576 | ebond = 36.4591617861084 | eexcv = 0 | estk = -841.850791371932 | ehbond = -135.991640347733 | exstk = -121.478761325052 | ecoaxstk = -11.2147854969658 | edh = 34.7313693452213 | epot = -1039.34544741035 | etot = -780.074695211777
7700  ekin = 137.651631875094 |  erot = 125.798652692328 | edyn = 263.450284567421 | ebond = 46.1262139084186 | eexcv = 0.0672804477049242 | estk = -834.584031174923 | ehbond = -157.425822166102 | exstk = -125.5426340662 | ecoaxstk = -9.11680460303497 | edh = 34.0885478715089 | epot = -1046.38724978263 | etot = -782.936965215205
7800  ekin = 132.346575898918 |  erot = 127.29162216124 | edyn = 259.638198060157 | ebond = 41.7218307388011 | eexcv = 0 | estk = -837.740984517571 | ehbond = -147.537570742952 | exstk = -131.993498328989 | ecoaxstk = -10.9253036449397 | edh = 33.5820947421128 | epot = -1052.89343175354 | etot = -793.255233693381
7900  ekin = 126.654419566295 |  erot = 120.53387719258 | edyn = 247.188296758875 | ebond = 43.1736817791307 | eexcv = 0 | estk = -828.484918406976 | ehbond = -146.946710064128 | exstk = -135.074292566897 | ecoaxstk = -13.3562241417261 | edh = 34.3635284248127 | epot = -1046.32493497578 | etot = -799.136638216909
8000  ekin = 123.201023195459 |  erot = 138.421467179992 | edyn = 261.622490375451 | ebond = 36.9514060915145 | eexcv = 0 | estk = -843.460373128976 | ehbond = -148.586778905744 | exstk = -138.704787529149 | ecoaxstk = -12.4517168840425 | edh = 34.7328005245967 | epot = -1071.5194498318 | etot = -809.896959456351
8100  ekin = 145.665231495802 |  erot = 133.783884289115 | edyn = 279.449115784917 | ebond = 40.398950812586 | eexcv = 0 | estk = -851.978482422714 | ehbond = -144.844267252104 | exstk = -135.508029499154 | ecoaxstk = -8.93918126656566 | edh = 35.1102887653578 | epot = -1065.76072086259 | etot = -786.311605077676
8200  ekin = 127.80180196551 |  erot = 131.599435423735 | edyn = 259.401237389245 | ebond = 38.7164353722117 | eexcv = 0.305915807568086 | estk = -822.784740918513 | ehbond = -139.322712712391 | exstk = -131.122272427358 | ecoaxstk = -13.6373647278206 | edh = 35.3681463673406 | epot = -1032.47659323896 | etot = -773.075355849717
8300  ekin = 115.392626076417 |  erot = 137.916066208022 | edyn = 253.308692284439 | ebond = 40.2682464072458 | eexcv = 0 | estk = -853.040421501188 | ehbond = -154.70069987302 | exstk = -125.119002505415 | ecoaxstk = -11.8701636919316 | edh = 35.4827277223639 | epot = -1068.97931344194 | etot = -815.670621157506
8400  ekin = 140.224480357789 |  erot = 119.199175502676 | edyn = 259.423655860465 | ebond = 32.8145035133183 | eexcv = 0.967608594237425 | estk = -827.44437505856 | ehbond = -155.81856253142 | exstk = -132.902575728541 | ecoaxstk = -13.2167031835831 | edh = 35.026375395961 | epot = -1060.57372899859 | etot = -801.150073138122
8500  ekin = 124.362177713056 |  erot = 135.265266502106 | edyn = 259.627444215162 | ebond = 40.4354704130519 | eexcv = 0 | estk = -828.320793077036 | ehbond = -164.404024157147 | exstk = -136.713055811678 | ecoaxstk = -11.6550231277044 | edh = 34.5616395846919 | epot = -1066.09578617582 | etot = -806.468341960661
8600  ekin = 138.241789886348 |  erot = 140.391834101518 | edyn = 278.633623987866 | ebond = 46.1561404245776 | eexcv = 0 | estk = -831.524058612728 | ehbond = -155.85829048161 | exstk = -147.155904381902 | ecoaxstk = -10.3289904074274 | edh = 34.7456860606775 | epot = -1063.96541739841 | etot = -785.331793410546
8700  ekin = 137.824216330024 |  erot = 116.387324895679 | edyn = 254.211541225703 | ebond = 40.4203993554138 | eexcv = 0 | estk = -841.241926550579 | ehbond = -153.906097074818 | exstk = -144.088902426154 | ecoaxstk = -4.59584322541849 | edh = 35.115909862253 | epot = -1068.2964600593 | etot = -814.0849188336
8800  ekin = 119.554692382307 |  erot = 142.632621144641 | edyn = 262.187313526948 | ebond = 45.1439805187825 | eexcv = 0.515912247314786 | estk = -846.336031365683 | ehbond = -162.047555737259 | exstk = -131.691983076207 | ecoaxstk = -4.36895257572468 | edh = 34.5281734720473 | epot = -1064.25645651673 | etot = -802.069142989781
8900  ekin = 127.471711265255 |  erot = 133.274637689399 | edyn = 260.746348954654 | ebond = 44.4610614328956 | eexcv = 0 | estk = -824.536984024114 | ehbond = -174.532303781768 | exstk = -140.93763980421 | ecoaxstk = -5.23055929020704 | edh = 33.6390484483103 | epot = -1067.13737701909 | etot = -806.391028064439
9000  ekin = 153.702165676756 |  erot = 140.893912095645 | edyn = 294.596077772401 | ebond = 35.7370487283954 | eexcv = 0 | estk = -848.053043345838 | ehbond = -158.131396188151 | exstk = -140.156319192425 | ecoaxstk = -1.71068749539458 | edh = 33.7542217943174 | epot = -1078.5601756991 | etot = -783.964097926695
9100  ekin = 138.289960223966 |  erot = 120.106553085348 | edyn = 258.396513309313 | ebond = 37.983106318862 | eexcv = 1.17959465877362 | estk = -828.491447588665 | ehbond = -176.981144949086 | exstk = -141.748264717116 | ecoaxstk = -2.91403115158939 | edh = 33.6120809696161 | epot = -1077.3601064592 | etot = -818.963593149891
9200  ekin = 139.358241978851 |  erot = 120.806466662169 | edyn = 260.164708641021 | ebond = 38.1529429602686 | eexcv = 0 | estk = -836.849997141034 | ehbond = -175.233721171808 | exstk = -135.024632536944 | ecoaxstk = -12.4867228694682 | edh = 34.593272041331 | epot = -1086.84885871765 | etot = -826.684150076633
9300  ekin = 134.424347443746 |  erot = 124.389039849728 | edyn = 258.813387293473 | ebond = 40.0308674322553 | eexcv = 0 | estk = -844.400498684745 | ehbond = -156.222681229046 | exstk = -135.236913027 | ecoaxstk = -11.0632280660911 | edh = 34.9205554920063 | epot = -1071.97189808262 | etot = -813.158510789147
9400  ekin = 138.570496968293 |  erot = 111.365742582889 | edyn = 249.936239551181 | ebond = 41.0790063178761 | eexcv = 0 | estk = -845.449939269341 | ehbond = -156.669141391289 | exstk = -137.800488855522 | ecoaxstk = -8.96694103814188 | edh = 35.1309863784006 | epot = -1072.67651785802 | etot = -822.740278306836
9500  ekin = 124.341541570578 |  erot = 133.906919904797 | edyn = 258.248461475376 | ebond = 37.537185299773 | eexcv = 0.528842814946461 | estk = -822.006487616466 | ehbond = -152.958281922985 | exstk = -131.461370326347 | ecoaxstk = -12.1862636875749 | edh = 34.9638929373222 | epot = -1045.58248250133 | etot = -787.334021025956
9600  ekin = 140.529774164438 |  erot = 137.780044852266 | edyn = 278.309819016703 | ebond = 32.0829445376483 | eexcv = 0.394052185808944 | estk = -841.403411589772 | ehbond = -153.366628422469 | exstk = -130.403728689388 | ecoaxstk = -10.9408197015187 | edh = 34.7031231810492 | epot = -1068.93446849864 | etot = -790.624649481937
9700  ekin = 134.168348697208 |  erot = 137.29083157009 | edyn = 271.459180267298 | ebond = 43.4656642013887 | eexcv = 0.535677168917972 | estk = -846.912124086477 | ehbond = -150.724011283075 | exstk = -127.732754378397 | ecoaxstk = -11.3236895897408 | edh = 35.0297512348605 | epot = -1057.66148673252 | etot = -786.202306465224
9800  ekin = 125.945082437473 |  erot = 119.974814700224 | edyn = 245.919897137697 | ebond = 48.8794314589978 | eexcv = 0 | estk = -839.436851258969 | ehbond = -163.469973380547 | exstk = -125.691540112126 | ecoaxstk = -15.5850021327325 | edh = 35.6665025743356 | epot = -1059.63743285104 | etot = -813.717535713344
9900  ekin = 135.951530528289 |  erot = 136.609672344825 | edyn = 272.561202873114 | ebond = 35.8219165405933 | eexcv = 0.447377667901252 | estk = -843.071978527484 | ehbond = -161.04547626956 | exstk = -135.008083121629 | ecoaxstk = -12.2597275095849 | edh = 35.9838595488404 | epot = -1079.13211167092 | etot = -806.570908797809
10000  ekin = 119.63366822309 |  erot = 128.003882251628 | edyn = 247.637550474718 | ebond = 37.8566886392844 | eexcv = 0.0509288274189901 | estk = -829.737967480197 | ehbond = -175.812516120322 | exstk = -140.37414938554 | ecoaxstk = -13.9055151743946 | edh = 36.0141006416665 | epot = -1085.90843005208 | etot = -838.270879577364
10100  ekin = 134.514917225524 |  erot = 125.82340179726 | edyn = 260.338319022784 | ebond = 52.1829930521368 | eexcv = 0.0145221213985208 | estk = -839.362166707192 | ehbond = -170.408704267723 | exstk = -133.423117887948 | ecoaxstk = -14.0659667614309 | edh = 36.3074029199094 | epot = -1068.75503753085 | etot = -808.416718508064
10200  ekin = 136.31238310008 |  erot = 139.273413419097 | edyn = 275.585796519177 | ebond = 47.2503399503169 | eexcv = 0 | estk = -829.157060014642 | ehbond = -171.216648694335 | exstk = -126.040031810086 | ecoaxstk = -11.1335986243085 | edh = 36.7943772647184 | epot = -1053.50262192834 | etot = -777.916825409161
10300  ekin = 142.88015723226 |  erot = 135.203371231552 | edyn = 278.083528463812 | ebond = 42.8268373882763 | eexcv = 0 | estk = -821.794716858747 | ehbond = -182.427076246781 | exstk = -139.741388290923 | ecoaxstk = -13.6103477904342 | edh = 36.2458906098914 | epot = -1078.50080118872 | etot = -800.417272724905
10400  ekin = 138.284886739637 |  erot = 133.555382470534 | edyn = 271.840269210171 | ebond = 48.499176885409 | eexcv = 0 | estk = -828.938534961961 | ehbond = -180.162649022317 | exstk = -135.435012750406 | ecoaxstk = -8.44692564645653 | edh = 35.9415631374525 | epot = -1068.54238235828 | etot = -796.702113148108
10500  ekin = 137.356316728924 |  erot = 125.44743811888 | edyn = 262.803754847803 | ebond = 49.0735689053117 | eexcv = 0 | estk = -839.680271609642 | ehbond = -175.41750378567 | exstk = -139.275331680865 | ecoaxstk = -8.3917333965163 | edh = 35.7685481134621 | epot = -1077.92272345392 | etot = -815.118968606117
10600  ekin = 130.682210294924 |  erot = 146.740517170982 | edyn = 277.422727465906 | ebond = 37.1949064962684 | eexcv = 0.123022724082551 | estk = -833.627875247488 | ehbond = -175.21283752719 | exstk = -136.134222051432 | ecoaxstk = -11.4759108226566 | edh = 34.9827161809449 | epot = -1084.15020024747 | etot = -806.727472781565
10700  ekin = 125.474288106085 |  erot = 124.165427996656 | edyn = 249.63971610274 | ebond = 33.9258206770535 | eexcv = 0 | estk = -827.48002886811 | ehbond = -182.971770044672 | exstk = -133.708907718951 | ecoaxstk = -10.7300855024324 | edh = 35.2649513740978 | epot = -1085.70002008301 | etot = -836.060303980274
10800  ekin = 126.446807023875 |  erot = 116.254105348574 | edyn = 242.700912372449 | ebond = 41.0389768516479 | eexcv = 0 | estk = -834.563881316963 | ehbond = -177.509312504955 | exstk = -129.929009847179 | ecoaxstk = -10.499031607269 | edh = 35.2751847610888 | epot = -1076.18707366363 | etot = -833.486161291179
10900  ekin = 121.842273786288 |  erot = 136.996409560932 | edyn = 258.83868334722 | ebond = 41.3088711615666 | eexcv = 0.0650996460939151 | estk = -827.112083755729 | ehbond = -197.537039747021 | exstk = -130.412568213378 | ecoaxstk = -10.8000286461514 | edh = 34.9279746464415 | epot = -1089.55977490818 | etot = -830.721091560958
11000  ekin = 120.926552514818 |  erot = 144.556525517351 | edyn = 265.483078032169 | ebond = 46.1600869120405 | eexcv = 0 | estk = -841.584943372704 | ehbond = -183.059236534266 | exstk = -131.003259034248 | ecoaxstk = -2.2595821677936 | edh = 35.2139726898115 | epot = -1076.53296150716 | etot = -811.049883474991
11100  ekin = 131.726324526479 |  erot = 130.064514828992 | edyn = 261.790839355471 | ebond = 41.2093149678332 | eexcv = 0 | estk = -831.265491803709 | ehbond = -189.308084028046 | exstk = -143.55969916161 | ecoaxstk = -2.04273779717561 | edh = 35.1151037850292 | epot = -1089.85159403768 | etot = -828.060754682207
11200  ekin = 141.35096938022 |  erot = 143.502485337634 | edyn = 284.853454717854 | ebond = 36.5292300976135 | eexcv = 0 | estk = -828.866640051553 | ehbond = -191.527486621282 | exstk = -140.207517444201 | ecoaxstk = -9.69655406766331 | edh = 34.7827358533344 | epot = -1098.98623223375 | etot = -814.132777515897
11300  ekin = 125.995993714398 |  erot = 144.006632808197 | edyn = 270.002626522594 | ebond = 47.966845760831 | eexcv = 0 | estk = -827.30195736841 | ehbond = -200.950953447384 | exstk = -129.137171321512 | ecoaxstk = -13.0418031253473 | edh = 34.9119899801544 | epot = -1087.55304952167 | etot = -817.550422999074
11400  ekin = 142.840212637073 |  erot = 132.225367105559 | edyn = 275.065579742632 | ebond = 35.3573748668149 | eexcv = 0 | estk = -837.806626276846 | ehbond = -163.532769039685 | exstk = -132.822274563977 | ecoaxstk = -9.8264972320575 | edh = 35.4777488988674 | epot = -1073.15304334688 | etot = -798.087463604251
11500  ekin = 129.259675434242 |  erot = 122.816686747734 | edyn = 252.076362181976 | ebond = 47.4550803952739 | eexcv = 0 | estk = -842.231278114513 | ehbond = -180.879142224283 | exstk = -136.127167257048 | ecoaxstk = -7.95311877014485 | edh = 35.883237493242 | epot = -1083.85238847747 | etot = -831.776026295497
11600  ekin = 136.824656918834 |  erot = 142.660788596186 | edyn = 279.485445515021 | ebond = 37.5341415338002 | eexcv = 0 | estk = -824.243502986417 | ehbond = -184.825403394786 | exstk = -132.696375416147 | ecoaxstk = -13.3366598599348 | edh = 35.860431708809 | epot = -1081.70736841468 | etot = -802.221922899656
11700  ekin = 137.639881274722 |  erot = 140.824418332422 | edyn = 278.464299607144 | ebond = 40.7870675823872 | eexcv = 0 | estk = -829.658707900289 | ehbond = -174.449078555795 | exstk = -132.978616345869 | ecoaxstk = -7.84444754150105 | edh = 35.745464786049 | epot = -1068.39831797502 | etot = -789.934018367874
11800  ekin = 159.598747354788 |  erot = 122.190635269441 | edyn = 281.789382624229 | ebond = 38.2642350779009 | eexcv = 0.0326755462776826 | estk = -828.288430886523 | ehbond = -195.964429207526 | exstk = -140.946445430711 | ecoaxstk = -8.61489747093789 | edh = 35.8276329449759 | epot = -1099.68965942654 | etot = -817.900276802314
11900  ekin = 141.381056940203 |  erot = 137.905105377218 | edyn = 279.286162317421 | ebond = 37.78150088939 | eexcv = 0 | estk = -808.241761652561 | ehbond = -198.379925847019 | exstk = -131.464249179659 | ecoaxstk = -5.96505403042966 | edh = 36.5774343981224 | epot = -1069.69205542216 | etot = -790.405893104736
12000  ekin = 140.624725095526 |  erot = 121.168875003692 | edyn = 261.793600099218 | ebond = 46.547468891219 | eexcv = 0.0253333799176962 | estk = -810.048525861831 | ehbond = -192.436918564947 | exstk = -142.153982829472 | ecoaxstk = -7.38084984683986 | edh = 36.4763014254532 | epot = -1068.9711734065 | etot = -807.177573307282
12100  ekin = 144.514352227313 |  erot = 135.247017357463 | edyn = 279.761369584776 | ebond = 41.08513110985 | eexcv = 0 | estk = -837.167328272572 | ehbond = -204.232104782682 | exstk = -125.514549729036 | ecoaxstk = -6.40872628892625 | edh = 36.6505558403134 | epot = -1095.58702212305 | etot = -815.825652538277
12200  ekin = 144.034037075409 |  erot = 116.276570607311 | edyn = 260.31060768272 | ebond = 44.874103075682 | eexcv = 0 | estk = -835.803612667544 | ehbond = -193.876719853685 | exstk = -136.653281038793 | ecoaxstk = -6.19401042256938 | edh = 35.6153209276286 | epot = -1092.03819997928 | etot = -831.72759229656
12300  ekin = 142.863060485028 |  erot = 141.482366437122 | edyn = 284.345426922149 | ebond = 40.7074448402382 | eexcv = 0 | estk = -817.093401772876 | ehbond = -201.81211786776 | exstk = -137.408690611568 | ecoaxstk = -7.14192350333345 | edh = 36.2118352019548 | epot = -1086.53685371334 | etot = -802.191426791196
12400  ekin = 133.396113860234 |  erot = 127.982824093733 | edyn = 261.378937953968 | ebond = 40.2635133876908 | eexcv = 0 | estk = -828.482804399768 | ehbond = -186.885620635193 | exstk = -131.744128838026 | ecoaxstk = -8.04830480907288 | edh = 37.4159161622831 | epot = -1077.48142913209 | etot = -816.102491178118
12500  ekin = 122.298231233295 |  erot = 109.269642000039 | edyn = 231.567873233334 | ebond = 51.3147140709736 | eexcv = 0 | estk = -809.496646962019 | ehbond = -180.811556238451 | exstk = -133.193556476358 | ecoaxstk = -9.42442953353422 | edh = 37.6000667036287 | epot = -1044.01140843576 | etot = -812.443535202426
12600  ekin = 122.863970987549 |  erot = 136.516632648353 | edyn = 259.380603635902 | ebond = 39.5876425881871 | eexcv = 0 | estk = -838.243640567326 | ehbond = -182.284810874453 | exstk = -136.792892721624 | ecoaxstk = -10.3526332726114 | edh = 37.0617878016342 | epot = -1091.02454704619 | etot = -831.64394341029
12700  ekin = 121.241233880583 |  erot = 132.528904712337 | edyn = 253.77013859292 | ebond = 52.6444244911444 | eexcv = 0 | estk = -816.287297378992 | ehbond = -183.429682039827 | exstk = -132.31072282134 | ecoaxstk = -16.1950436101811 | edh = 36.6071444324761 | epot = -1058.97117692672 | etot = -805.201038333799
12800  ekin = 128.987617429975 |  erot = 131.131512471291 | edyn = 260.119129901266 | ebond = 41.9138878537022 | eexcv = 0.0138969713342524 | estk = -822.446977607111 | ehbond = -180.668544334183 | exstk = -133.415892124318 | ecoaxstk = -14.7079972530702 | edh = 36.3905545914164 | epot = -1072.92107190223 | etot = -812.801942000963
12900  ekin = 130.599554498461 |  erot = 130.516449822077 | edyn = 261.116004320537 | ebond = 36.1046664170338 | eexcv = 0 | estk = -813.595562178431 | ehbond = -187.905913331184 | exstk = -145.38407212566 | ecoaxstk = -8.6884160723389 | edh = 35.3339597472154 | epot = -1084.13533754336 | etot = -823.019333222827
13000  ekin = 124.938255763402 |  erot = 144.015079455276 | edyn = 268.953335218678 | ebond = 40.332478385851 | eexcv = 0 | estk = -822.295421237086 | ehbond = -183.117196518747 | exstk = -136.666119323443 | ecoaxstk = -11.2040306545602 | edh = 36.5986769463152 | epot = -1076.35161240167 | etot = -807.398277182991
13100  ekin = 130.926898916793 |  erot = 138.905494078721 | edyn = 269.832392995515 | ebond = 41.8968329648288 | eexcv = 0.0718771199777758 | estk = -824.670497500753 | ehbond = -176.793801716873 | exstk = -140.802826018413 | ecoaxstk = -9.91666538109652 | edh = 36.7923222666306 | epot = -1073.4227582657 | etot = -803.590365270185
13200  ekin = 136.752961340459 |  erot = 140.273228911353 | edyn = 277.026190251812 | ebond = 27.5343865918004 | eexcv = 0 | estk = -790.376228836227 | ehbond = -193.764316605481 | exstk = -146.35478209064 | ecoaxstk = -14.7555951174745 | edh = 35.5881995471388 | epot = -1082.12833651088 | etot = -805.102146259071
13300  ekin = 126.165359599149 |  erot = 133.575834164851 | edyn = 259.741193764 | ebond = 37.6329579606148 | eexcv = 0 | estk = -812.556440711756 | ehbond = -194.556356340436 | exstk = -133.963458504671 | ecoaxstk = -10.6303694900001 | edh = 35.3898561421365 | epot = -1078.68381094411 | etot = -818.942617180111
13400  ekin = 128.453716999184 |  erot = 138.648822574876 | edyn = 267.10253957406 | ebond = 43.5427535085455 | eexcv = 0 | estk = -828.432290967145 | ehbond = -197.542147544909 | exstk = -134.857914482276 | ecoaxstk = -8.94299674083974 | edh = 35.6847364538501 | epot = -1090.54785977277 | etot = -823.445320198714
13500  ekin = 142.694725209669 |  erot = 141.842099425184 | edyn = 284.536824634853 | ebond = 39.221337541483 | eexcv = 0 | estk = -825.207237055977 | ehbond = -193.351643179622 | exstk = -135.539971989788 | ecoaxstk = -12.8543141009012 | edh = 35.3775572131724 | epot = -1092.35427157163 | etot = -807.817446936779
13600  ekin = 123.770969520277 |  erot = 132.570943378308 | edyn = 256.341912898586 | ebond = 40.2357858658735 | eexcv = 0 | estk = -822.804946056234 | ehbond = -186.980969504866 | exstk = -129.304693531264 | ecoaxstk = -9.64565508746677 | edh = 35.5043096913375 | epot = -1072.99616862262 | etot = -816.654255724034
13700  ekin = 134.782560767864 |  erot = 133.476858337288 | edyn = 268.259419105151 | ebond = 42.3244255284695 | eexcv = 1.12881498925255 | estk = -829.813911920517 | ehbond = -183.607852286103 | exstk = -132.02285305941 | ecoaxstk = -11.9367816939886 | edh = 35.4953762150783 | epot = -1078.43278222722 | etot = -810.173363122067
13800  ekin = 140.466438467996 |  erot = 136.651476266596 | edyn = 277.117914734592 | ebond = 34.8945845187366 | eexcv = 0 | estk = -810.384431521686 | ehbond = -198.949814619253 | exstk = -146.19526608016 | ecoaxstk = -11.7963244345962 | edh = 35.9539944887631 | epot = -1096.4772576482 | etot = -819.359342913604
13900  ekin = 114.451337921051 |  erot = 143.546807173537 | edyn = 257.998145094588 | ebond = 47.6959728510451 | eexcv = 0 | estk = -827.92419994403 | ehbond = -184.492768983427 | exstk = -133.547962393783 | ecoaxstk = -10.2841360665584 | edh = 36.4641925625614 | epot = -1072.08890197419 | etot = -814.090756879604
14000  ekin = 133.717406836707 |  erot = 129.686791481783 | edyn = 263.40419831849 | ebond = 39.0736717806651 | eexcv = 0 | estk = -829.455603142201 | ehbond = -199.037811386768 | exstk = -138.372675543261 | ecoaxstk = -12.2100963606171 | edh = 35.4927244256496 | epot = -1104.50979022653 | etot = -841.105591908042
14100  ekin = 121.629011476927 |  erot = 123.638122289122 | edyn = 245.26713376605 | ebond = 36.6076767410336 | eexcv = 0 | estk = -823.895976121093 | ehbond = -181.683774518744 | exstk = -148.363322959212 | ecoaxstk = -14.0148872756716 | edh = 35.6810381230154 | epot = -1095.66924601067 | etot = -850.402112244623
14200  ekin = 116.215120524611 |  erot = 125.79351311963 | edyn = 242.008633644241 | ebond = 45.9311702275261 | eexcv = 0.0511490945107315 | estk = -818.929889217668 | ehbond = -195.205279851399 | exstk = -135.575924661078 | ecoaxstk = -12.4635168469363 | edh = 36.2544742172086 | epot = -1079.93781703784 | etot = -837.929183393594
14300  ekin = 134.230637014748 |  erot = 140.227970170377 | edyn = 274.458607185125 | ebond = 37.5791130894518 | eexcv = 0 | estk = -808.480568040897 | ehbond = -192.315308199448 | exstk = -145.687111099022 | ecoaxstk = -12.6452739823655 | edh = 35.5833232988117 | epot = -1085.96582493347 | etot = -811.507217748345
14400  ekin = 134.882296593917 |  erot = 140.073087917477 | edyn = 274.955384511394 | ebond = 36.7556073431118 | eexcv = 0 | estk = -823.891631239879 | ehbond = -179.696551070873 | exstk = -141.190777756883 | ecoaxstk = -10.1803896783635 | edh = 35.6951012757946 | epot = -1082.50864112709 | etot = -807.553256615698
14500  ekin = 124.831095374279 |  erot = 133.953864091753 | edyn = 258.784959466033 | ebond = 45.2967875099007 | eexcv = 0 | estk = -818.707138099602 | ehbond = -199.358944704705 | exstk = -139.048045211651 | ecoaxstk = -8.5177749697175 | edh = 36.0210239222702 | epot = -1084.3140915535 | etot = -825.529132087472
14600  ekin = 140.066960278592 |  erot = 142.127074106277 | edyn = 282.194034384869 | ebond = 43.9510708213532 | eexcv = 0.0108135094734008 | estk = -814.783752134263 | ehbond = -189.288715648135 | exstk = -134.994637811818 | ecoaxstk = -12.2491917852842 | edh = 36.465369477212 | epot = -1070.88904357146 | etot = -788.695009186593
14700  ekin = 129.678950510132 |  erot = 147.190337008507 | edyn = 276.86928751864 | ebond = 40.8538632962315 | eexcv = 0.0270428851757204 | estk = -815.745025811113 | ehbond = -208.70631649497 | exstk = -129.375234470576 | ecoaxstk = -11.2036006225608 | edh = 37.6059208407159 | epot = -1086.5433503771 | etot = -809.674062858457
14800  ekin = 131.674156299724 |  erot = 137.822476304845 | edyn = 269.496632604569 | ebond = 44.9441726525437 | eexcv = 0 | estk = -830.97009984174 | ehbond = -194.448297428816 | exstk = -132.25847532487 | ecoaxstk = -6.77701808307756 | edh = 38.0487294001221 | epot = -1081.46098862584 | etot = -811.964356021269
14900  ekin = 132.262517859872 |  erot = 132.69805909721 | edyn = 264.960576957082 | ebond = 42.1240018471876 | eexcv = 0 | estk = -819.228762247643 | ehbond = -202.342728256662 | exstk = -138.346431397805 | ecoaxstk = -10.4343179660325 | edh = 36.9069944280719 | epot = -1091.32124359288 | etot = -826.360666635801
15000  ekin = 130.927208459522 |  erot = 120.750596494306 | edyn = 251.677804953828 | ebond = 45.7001327198959 | eexcv = 0 | estk = -830.942879186661 | ehbond = -180.882015987038 | exstk = -139.797868440651 | ecoaxstk = -14.5185000168243 | edh = 36.9402743318531 | epot = -1083.50085657943 | etot = -831.823051625597
15100  ekin = 132.474287694262 |  erot = 132.031958206882 | edyn = 264.506245901145 | ebond = 42.353849030005 | eexcv = 0 | estk = -832.3694704488 | ehbond = -194.048748513992 | exstk = -129.428021291607 | ecoaxstk = -17.5717994274228 | edh = 36.2152823219709 | epot = -1094.84890832985 | etot = -830.342662428701
15200  ekin = 128.727032854865 |  erot = 123.645233797602 | edyn = 252.372266652467 | ebond = 34.3442362725045 | eexcv = 0 | estk = -814.821039634006 | ehbond = -187.517371372153 | exstk = -126.189750612537 | ecoaxstk = -12.9522343876847 | edh = 35.7577899463052 | epot = -1071.37836978757 | etot = -819.006103135104
15300  ekin = 124.030156553164 |  erot = 120.772632043085 | edyn = 244.802788596248 | ebond = 47.5681585723938 | eexcv = 0 | estk = -811.989494835884 | ehbond = -195.498744850826 | exstk = -136.705123680645 | ecoaxstk = -13.87062421041 | edh = 35.5457949326106 | epot = -1074.95003407276 | etot = -830.147245476512
15400  ekin = 123.977118399599 |  erot = 136.637250621289 | edyn = 260.614369020888 | ebond = 39.8984603493614 | eexcv = 0 | estk = -821.68804833967 | ehbond = -195.524666486893 | exstk = -132.707478975272 | ecoaxstk = -13.4432537472942 | edh = 36.1239145167012 | epot = -1087.34107268307 | etot = -826.726703662178
15500  ekin = 136.016723529888 |  erot = 129.381896136959 | edyn = 265.398619666847 | ebond = 42.7101821309369 | eexcv = 0 | estk = -827.581608447913 | ehbond = -199.101906216211 | exstk = -136.221133915918 | ecoaxstk = -13.0972718334475 | edh = 35.8795364462833 | epot = -1097.41220183627 | etot = -832.013582169423
15600  ekin = 124.118601445929 |  erot = 121.323622774463 | edyn = 245.442224220392 | ebond = 40.6329802070605 | eexcv = 0.0602463305896338 | estk = -808.826848355774 | ehbond = -203.568067607468 | exstk = -132.237092646686 | ecoaxstk = -18.2592441171949 | edh = 36.0224210110157 | epot = -1086.17560517846 | etot = -840.733380958065
15700  ekin = 130.08810958633 |  erot = 128.363755733629 | edyn = 258.451865319959 | ebond = 39.2712786699652 | eexcv = 0 | estk = -805.408644364808 | ehbond = -198.040603781585 | exstk = -140.404821033306 | ecoaxstk = -17.0152160543293 | edh = 35.2965358596883 | epot = -1086.30147070438 | etot = -827.849605384417
15800  ekin = 127.483186750503 |  erot = 131.700520328787 | edyn = 259.18370707929 | ebond = 43.8794583470609 | eexcv = 0 | estk = -832.42993764023 | ehbond = -193.19349451753 | exstk = -131.033028274669 | ecoaxstk = -14.5353811490228 | edh = 34.6151732035128 | epot = -1092.69721003088 | etot = -833.513502951588
15900  ekin = 120.078744706002 |  erot = 136.627333394743 | edyn = 256.706078100745 | ebond = 46.3356929090461 | eexcv = 0 | estk = -814.968601717077 | ehbond = -201.120484452402 | exstk = -130.784362299347 | ecoaxstk = -13.2495467890887 | edh = 34.1961203817605 | epot = -1079.59118196711 | etot = -822.885103866363
16000  ekin = 142.791887661358 |  erot = 141.645025467248 | edyn = 284.436913128606 | ebond = 35.6915724972412 | eexcv = 1.50849188914384 | estk = -818.285993393496 | ehbond = -197.797610273844 | exstk = -129.305787606803 | ecoaxstk = -16.9090081631937 | edh = 34.4917137518734 | epot = -1090.60662129908 | etot = -806.169708170474
16100  ekin = 134.234542495149 |  erot = 122.677540315174 | edyn = 256.912082810324 | ebond = 46.1057294272956 | eexcv = 0 | estk = -830.570450575306 | ehbond = -207.345383220586 | exstk = -117.052251977076 | ecoaxstk = -7.33691969932582 | edh = 35.3652875469606 | epot = -1080.83398849804 | etot = -823.921905687714
16200  ekin = 137.404382770791 |  erot = 119.681947008043 | edyn = 257.086329778834 | ebond = 38.2695444056525 | eexcv = 0.0427331758601328 | estk = -817.636787058282 | ehbond = -196.329153684792 | exstk = -128.667805587026 | ecoaxstk = -15.8267758099607 | edh = 35.017244765895 | epot = -1085.13099979265 | etot = -828.044670013818
16300  ekin = 131.098469240723 |  erot = 130.149880970771 | edyn = 261.248350211494 | ebond = 37.522145230586 | eexcv = 0 | estk = -806.236629961476 | ehbond = -195.692285246965 | exstk = -129.815857119457 | ecoaxstk = -11.2712223620335 | edh = 35.0648819890538 | epot = -1070.42896747029 | etot = -809.180617258798
16400  ekin = 132.096210903112 |  erot = 128.014785646496 | edyn = 260.110996549607 | ebond = 38.3714948837522 | eexcv = 0 | estk = -820.061267570123 | ehbond = -207.678200413373 | exstk = -129.535631950087 | ecoaxstk = -12.0220890040552 | edh = 34.7888924539077 | epot = -1096.13680159998 | etot = -836.025805050371
16500  ekin = 122.084181811341 |  erot = 137.230258691886 | edyn = 259.314440503227 | ebond = 50.3859087140235 | eexcv = 0 | estk = -834.219126365213 | ehbond = -204.359651206396 | exstk = -122.471100682313 | ecoaxstk = -12.9745873045544 | edh = 34.9823522697721 | epot = -1088.65620457468 | etot = -829.341764071453
16600  ekin = 132.318379640856 |  erot = 124.528089726971 | edyn = 256.846469367827 | ebond = 36.0040701225082 | eexcv = 0 | estk = -829.85103247136 | ehbond = -183.656851395463 | exstk = -132.757362712574 | ecoaxstk = -14.7588915029686 | edh = 34.9866502080351 | epot = -1090.03341775182 | etot = -833.186948383995
16700  ekin = 129.785712890051 |  erot = 123.97986681689 | edyn = 253.765579706941 | ebond = 36.1411518432713 | eexcv = 0.619048357131282 | estk = -806.658270947969 | ehbond = -195.764273652123 | exstk = -127.759733380358 | ecoaxstk = -17.8184507647408 | edh = 35.9800519016232 | epot = -1075.26047664317 | etot = -821.494896936224
16800  ekin = 145.400567619011 |  erot = 129.458501825254 | edyn = 274.859069444265 | ebond = 34.1158733263328 | eexcv = 0.0748596749176963 | estk = -815.696270238944 | ehbond = -194.374391495772 | exstk = -138.890588012289 | ecoaxstk = -14.1454415229088 | edh = 35.4200893582403 | epot = -1093.49586891042 | etot = -818.636799466158
16900  ekin = 124.090959313903 |  erot = 148.405430227696 | edyn = 272.4963895416 | ebond = 36.2628583651457 | eexcv = 0 | estk = -835.109564027486 | ehbond = -192.983718445913 | exstk = -126.189385688426 | ecoaxstk = -13.0070377276888 | edh = 35.7580117122904 | epot = -1095.26883581208 | etot = -822.772446270478
17000  ekin = 133.998776696812 |  erot = 141.571701038919 | edyn = 275.570477735731 | ebond = 41.0688688579908 | eexcv = 0.0675794003997343 | estk = -826.343011997481 | ehbond = -187.841463271496 | exstk = -130.631378470634 | ecoaxstk = -13.9633952566248 | edh = 35.4805635906186 | epot = -1082.16223714723 | etot = -806.591759411496
17100  ekin = 122.021759161123 |  erot = 130.129034077447 | edyn = 252.150793238571 | ebond = 44.5940741693587 | eexcv = 0 | estk = -819.495953266256 | ehbond = -194.084062974958 | exstk = -128.870908500645 | ecoaxstk = -17.9867154605973 | edh = 35.400688227024 | epot = -1080.44287780607 | etot = -828.292084567503
17200  ekin = 124.896958087837 |  erot = 124.978144088148 | edyn = 249.875102175985 | ebond = 34.6866054157536 | eexcv = 0 | estk = -822.854422469615 | ehbond = -186.618413565809 | exstk = -121.831432511824 | ecoaxstk = -17.2818870318722 | edh = 35.2335100291215 | epot = -1078.66604013425 | etot = -828.790937958261
17300  ekin = 120.208468211816 |  erot = 154.677446639751 | edyn = 274.885914851566 | ebond = 38.7682254155949 | eexcv = 0 | estk = -803.840458441214 | ehbond = -186.955993461477 | exstk = -117.94479998668 | ecoaxstk = -15.212055573323 | edh = 35.4880174306719 | epot = -1049.69706461643 | etot = -774.811149764861
17400  ekin = 137.10993640132 |  erot = 120.883971262579 | edyn = 257.993907663899 | ebond = 40.1851671727377 | eexcv = 0.487248879163539 | estk = -822.240676096125 | ehbond = -186.229755946609 | exstk = -127.192421361277 | ecoaxstk = -13.6698906915458 | edh = 34.670731699539 | epot = -1073.98959634412 | etot = -815.995688680218
17500  ekin = 130.154021304287 |  erot = 131.908011206187 | edyn = 262.062032510474 | ebond = 43.192911840234 | eexcv = 0 | estk = -801.582992908481 | ehbond = -193.115675347608 | exstk = -127.068974623775 | ecoaxstk = -12.2392673796194 | edh = 33.8040925035877 | epot = -1057.00990591566 | etot = -794.947873405188
17600  ekin = 129.666336478843 |  erot = 137.56222424779 | edyn = 267.228560726633 | ebond = 43.3099703498259 | eexcv = 0 | estk = -825.819140824282 | ehbond = -208.029124442789 | exstk = -112.779756781441 | ecoaxstk = -13.616372698703 | edh = 34.5169307882732 | epot = -1082.41749360912 | etot = -815.188932882483
17700  ekin = 128.404898031639 |  erot = 124.477950155061 | edyn = 252.8828481867 | ebond = 46.0222723315016 | eexcv = 0 | estk = -820.436353127523 | ehbond = -197.678778137809 | exstk = -126.211001001004 | ecoaxstk = -16.5772779205464 | edh = 34.705439470867 | epot = -1080.17569838451 | etot = -827.292850197813
17800  ekin = 124.316645228868 |  erot = 130.220486266221 | edyn = 254.537131495089 | ebond = 42.4595089564947 | eexcv = 0 | estk = -818.895828787233 | ehbond = -210.840495896859 | exstk = -127.291502293119 | ecoaxstk = -17.5125231130426 | edh = 34.6801898493492 | epot = -1097.40065128441 | etot = -842.863519789321
17900  ekin = 110.412675320089 |  erot = 133.931495079392 | edyn = 244.344170399481 | ebond = 31.5788113094692 | eexcv = 0 | estk = -804.386801577569 | ehbond = -213.792052485008 | exstk = -137.237713614177 | ecoaxstk = -15.1499569121812 | edh = 34.5357024316221 | epot = -1104.45201084784 | etot = -860.107840448362
18000  ekin = 116.703724252134 |  erot = 138.644196046789 | edyn = 255.347920298923 | ebond = 43.2124002715432 | eexcv = 0 | estk = -807.144027962246 | ehbond = -213.691563714924 | exstk = -138.77748372777 | ecoaxstk = -12.847393177609 | edh = 34.9539955235009 | epot = -1094.2940727875 | etot = -838.946152488581
18100  ekin = 120.565095574057 |  erot = 134.660173353357 | edyn = 255.225268927414 | ebond = 40.8283749654847 | eexcv = 0.055183021980673 | estk = -804.772503342329 | ehbond = -207.312433082241 | exstk = -137.427533695077 | ecoaxstk = -13.3861816419976 | edh = 34.9636599947873 | epot = -1087.05143377939 | etot = -831.826164851978
18200  ekin = 134.578981889661 |  erot = 148.785264508956 | edyn = 283.364246398617 | ebond = 41.7885176843289 | eexcv = 0 | estk = -809.882903723493 | ehbond = -192.457264506693 | exstk = -125.145828641388 | ecoaxstk = -13.6825022796587 | edh = 35.2600684530327 | epot = -1064.11991301387 | etot = -780.755666615254
18300  ekin = 137.898391100602 |  erot = 137.698908599246 | edyn = 275.597299699849 | ebond = 40.1865613015583 | eexcv = 0 | estk = -800.296603331106 | ehbond = -210.468484953453 | exstk = -125.45464334973 | ecoaxstk = -12.5291367261101 | edh = 35.72766138706 | epot = -1072.83464567178 | etot = -797.237345971932
18400  ekin = 137.826732580954 |  erot = 142.229447535597 | edyn = 280.05618011655 | ebond = 38.1887040700467 | eexcv = 0.119461962528095 | estk = -807.77087626233 | ehbond = -204.668247918264 | exstk = -117.267777608595 | ecoaxstk = -16.4290371137189 | edh = 36.2473561818564 | epot = -1071.58041668848 | etot = -791.524236571926
18500  ekin = 130.558881939367 |  erot = 125.703874385685 | edyn = 256.262756325052 | ebond = 41.2759852639534 | eexcv = 0 | estk = -774.858780421598 | ehbond = -194.571810317983 | exstk = -122.620299272063 | ecoaxstk = -15.3476774221446 | edh = 36.5017569715022 | epot = -1029.62082519833 | etot = -773.358068873281
18600  ekin = 159.467855726261 |  erot = 133.584100664718 | edyn = 293.051956390978 | ebond = 39.3842856456019 | eexcv = 0.0880698543140527 | estk = -803.26936877049 | ehbond = -214.731772771077 | exstk = -125.821860765147 | ecoaxstk = -15.9436131079425 | edh = 35.3973264063729 | epot = -1084.89693350837 | etot = -791.844977117389
18700  ekin = 115.492419626697 |  erot = 141.027356220289 | edyn = 256.519775846986 | ebond = 33.6714164670545 | eexcv = 0.117234982198874 | estk = -790.342659764729 | ehbond = -214.189771074333 | exstk = -120.757022640861 | ecoaxstk = -16.9355151990359 | edh = 35.2475731872124 | epot = -1073.18874404249 | etot = -816.668968195506
18800  ekin = 121.293454939695 |  erot = 145.504978538955 | edyn = 266.79843347865 | ebond = 43.0414796483927 | eexcv = 0 | estk = -797.303960383513 | ehbond = -210.655023168903 | exstk = -116.801450358828 | ecoaxstk = -16.2842736498688 | edh = 35.3768273968457 | epot = -1062.62640051588 | etot = -795.827967037225
18900  ekin = 109.196445516871 |  erot = 147.119858934956 | edyn = 256.316304451826 | ebond = 47.8516940536883 | eexcv = 0.217188367913238 | estk = -793.695864205197 | ehbond = -212.330707681685 | exstk = -120.152293427412 | ecoaxstk = -14.3784148604987 | edh = 35.6503149304511 | epot = -1056.83808282274 | etot = -800.521778370913
19000  ekin = 127.552852901666 |  erot = 128.775357356341 | edyn = 256.328210258007 | ebond = 43.5704117751273 | eexcv = 8.03297599474708e-05 | estk = -792.518561602623 | ehbond = -230.329471360977 | exstk = -128.405117729316 | ecoaxstk = -12.9297568088007 | edh = 34.6132426025499 | epot = -1085.99917279428 | etot = -829.670962536273
19100  ekin = 126.547273990785 |  erot = 120.402870505917 | edyn = 246.950144496702 | ebond = 34.2723395418578 | eexcv = 0 | estk = -797.394010047603 | ehbond = -221.206396087736 | exstk = -115.179971058336 | ecoaxstk = -13.9234197837686 | edh = 34.6866736531471 | epot = -1078.74478378244 | etot = -831.794639285738
19200  ekin = 132.495202895072 |  erot = 131.402709646464 | edyn = 263.897912541536 | ebond = 42.9470469700551 | eexcv = 0.0064291340685127 | estk = -800.24895022091 | ehbond = -223.263961844532 | exstk = -116.841028452558 | ecoaxstk = -11.6806596120718 | edh = 34.7242911446464 | epot = -1074.3568328813 | etot = -810.458920339766
19300  ekin = 131.048021158261 |  erot = 137.039246165017 | edyn = 268.087267323279 | ebond = 53.171181167825 | eexcv = 0 | estk = -802.794745897538 | ehbond = -233.629471985819 | exstk = -119.465792370143 | ecoaxstk = -14.4173567662508 | edh = 34.8661384193171 | epot = -1082.27004743261 | etot = -814.18278010933
19400  ekin = 139.025059628139 |  erot = 129.692451827853 | edyn = 268.717511455992 | ebond = 43.204373436092 | eexcv = 0 | estk = -807.410077577828 | ehbond = -236.478621263115 | exstk = -123.052660074749 | ecoaxstk = -16.2641593189219 | edh = 34.8820794341798 | epot = -1105.11906536434 | etot = -836.401553908351
19500  ekin = 144.479093652528 |  erot = 127.587577024019 | edyn = 272.066670676547 | ebond = 44.609181602784 | eexcv = 0.175574498797928 | estk = -818.80661543367 | ehbond = -219.534139202511 | exstk = -129.810513803681 | ecoaxstk = -17.7705564096225 | edh = 34.5494901289792 | epot = -1106.58757861892 | etot = -834.520907942375
19600  ekin = 133.399893099305 |  erot = 134.9163817767 | edyn = 268.316274876005 | ebond = 39.2978832857863 | eexcv = 0.0324947256865468 | estk = -823.043501127884 | ehbond = -221.475338413645 | exstk = -121.812889758445 | ecoaxstk = -13.3114032999595 | edh = 33.840714158491 | epot = -1106.47204042997 | etot = -838.155765553964
19700  ekin = 143.547511266036 |  erot = 124.90064409534 | edyn = 268.448155361376 | ebond = 34.5070563604238 | eexcv = 1.41032766742084 | estk = -808.347474059329 | ehbond = -210.778857427757 | exstk = -123.486398813101 | ecoaxstk = -13.5520963014216 | edh = 34.6581091284497 | epot = -1085.58933344531 | etot = -817.141178083939
19800  ekin = 123.610842018782 |  erot = 118.482113830932 | edyn = 242.092955849715 | ebond = 36.0457984058709 | eexcv = 0 | estk = -802.35919885227 | ehbond = -217.252951948007 | exstk = -124.711755201938 | ecoaxstk = -15.307297460118 | edh = 35.6902781383208 | epot = -1087.89512691814 | etot = -845.802171068426
19900  ekin = 141.143349262983 |  erot = 134.156598276801 | edyn = 275.299947539784 | ebond = 44.053199861788 | eexcv = 0.13889192459928 | estk = -819.735565276643 | ehbond = -209.277239581438 | exstk = -133.450782186456 | ecoaxstk = -13.1460989356112 | edh = 35.428024170871 | epot = -1095.98957002289 | etot = -820.689622483105
20000  ekin = 157.164606844659 |  erot = 126.063054437627 | edyn = 283.227661282287 | ebond = 40.2921254400661 | eexcv = 0 | estk = -816.917732902828 | ehbond = -213.553167449495 | exstk = -128.437115906546 | ecoaxstk = -15.919748448847 | edh = 35.3906472749419 | epot = -1099.14499199271 | etot = -815.91733071042
20100  ekin = 143.936699158673 |  erot = 142.747434870369 | edyn = 286.684134029042 | ebond = 50.3638744561796 | eexcv = 0.111583484799288 | estk = -805.881658022941 | ehbond = -214.345153899518 | exstk = -134.04304061557 | ecoaxstk = -14.4980415664206 | edh = 34.6490002184457 | epot = -1083.64343594502 | etot = -796.959301915983
20200  ekin = 154.907867568433 |  erot = 142.236713261994 | edyn = 297.144580830426 | ebond = 45.1987056312758 | eexcv = 0 | estk = -800.251581205083 | ehbond = -200.928188448256 | exstk = -133.154526876879 | ecoaxstk = -14.8622174861666 | edh = 35.3058825033931 | epot = -1068.69192588172 | etot = -771.54734505129
20300  ekin = 146.656016386516 |  erot = 128.819535921957 | edyn = 275.475552308472 | ebond = 41.5764496594481 | eexcv = 0.754754638240021 | estk = -811.804336652263 | ehbond = -202.990827937295 | exstk = -130.513755798823 | ecoaxstk = -15.7637047484997 | edh = 35.5540483270825 | epot = -1083.18737251211 | etot = -807.711820203638
20400  ekin = 141.633665432351 |  erot = 129.419639995684 | edyn = 271.053305428035 | ebond = 36.4014683854013 | eexcv = 0 | estk = -804.726435710544 | ehbond = -223.8512273252 | exstk = -127.190234621816 | ecoaxstk = -11.506238201683 | edh = 35.8427420536556 | epot = -1095.02992542018 | etot = -823.97661999215
20500  ekin = 135.933155293247 |  erot = 122.951614821205 | edyn = 258.884770114451 | ebond = 38.0935220644532 | eexcv = 0.240180568445921 | estk = -811.262248562592 | ehbond = -227.74573689663 | exstk = -124.913610324867 | ecoaxstk = -17.5120812155684 | edh = 36.1158169013677 | epot = -1106.98415746539 | etot = -848.099387350939
20600  ekin = 132.739851743272 |  erot = 136.45031007413 | edyn = 269.190161817402 | ebond = 41.4257843643088 | eexcv = 0 | estk = -825.511711611066 | ehbond = -220.954254883138 | exstk = -122.961572247156 | ecoaxstk = -15.3494291431656 | edh = 34.7623231448081 | epot = -1108.58886037541 | etot = -839.398698558007
20700  ekin = 119.916953880502 |  erot = 144.128491295273 | edyn = 264.045445175775 | ebond = 39.6374590740501 | eexcv = 0.660312886891599 | estk = -803.488246567109 | ehbond = -231.960151795702 | exstk = -120.866371352331 | ecoaxstk = -15.1916790566651 | edh = 34.0611444247267 | epot = -1097.14753238614 | etot = -833.102087210365
20800  ekin = 135.014391322614 |  erot = 127.055723719748 | edyn = 262.070115042362 | ebond = 43.6465878277436 | eexcv = 0 | estk = -820.754986414848 | ehbond = -234.719099551818 | exstk = -124.481289194292 | ecoaxstk = -16.1716928622764 | edh = 34.0434506801624 | epot = -1118.43702951533 | etot = -856.366914472968
20900  ekin = 139.053629601766 |  erot = 125.956077254921 | edyn = 265.009706856687 | ebond = 44.2729227912029 | eexcv = 0 | estk = -815.669593787428 | ehbond = -237.46450623564 | exstk = -135.785868193254 | ecoaxstk = -14.5423386112926 | edh = 34.4301277912844 | epot = -1124.75925624513 | etot = -859.74954938844
21000  ekin = 133.301219557674 |  erot = 128.835930070549 | edyn = 262.137149628223 | ebond = 36.4653267542235 | eexcv = 0 | estk = -809.16854949259 | ehbond = -233.884704062957 | exstk = -132.454352005345 | ecoaxstk = -12.9141082460733 | edh = 33.8160896790115 | epot = -1118.14029737373 | etot = -856.003147745507
21100  ekin = 130.211242955573 |  erot = 133.647739868881 | edyn = 263.858982824454 | ebond = 41.6346542172982 | eexcv = 0 | estk = -803.102086030024 | ehbond = -232.666523549432 | exstk = -137.951384299528 | ecoaxstk = -16.3681282227037 | edh = 34.3816769504676 | epot = -1114.07179093392 | etot = -850.212808109468
21200  ekin = 123.181068645134 |  erot = 136.59599154015 | edyn = 259.777060185284 | ebond = 42.3887476216499 | eexcv = 0 | estk = -814.08934867389 | ehbond = -216.43606857929 | exstk = -131.861636262752 | ecoaxstk = -15.524165650696 | edh = 35.5257154688807 | epot = -1099.9967560761 | etot = -840.219695890813
21300  ekin = 119.840516584429 |  erot = 138.807355708611 | edyn = 258.64787229304 | ebond = 34.8792335604226 | eexcv = 0.0020361442659419 | estk = -809.91384048147 | ehbond = -234.610483740321 | exstk = -135.163826274086 | ecoaxstk = -19.9895664025699 | edh = 35.4429706795555 | epot = -1129.3534765142 | etot = -870.705604221163
21400  ekin = 125.355533924189 |  erot = 122.983062650932 | edyn = 248.338596575121 | ebond = 41.5188480299784 | eexcv = 0 | estk = -818.518935094678 | ehbond = -246.313957266195 | exstk = -119.028067996993 | ecoaxstk = -15.027328993097 | edh = 35.9665277364621 | epot = -1121.40291358452 | etot = -873.064317009401
21500  ekin = 120.958886082465 |  erot = 124.36300008842 | edyn = 245.321886170886 | ebond = 36.8223694508499 | eexcv = 0 | estk = -826.991249721829 | ehbond = -231.438885056786 | exstk = -119.379496941761 | ecoaxstk = -17.415342842721 | edh = 35.8436922122349 | epot = -1122.55891290001 | etot = -877.237026729128
21600  ekin = 123.690955267125 |  erot = 125.319482517967 | edyn = 249.010437785092 | ebond = 39.8879530704933 | eexcv = 0 | estk = -813.652028701286 | ehbond = -235.627950829735 | exstk = -122.274136276547 | ecoaxstk = -15.7490423115947 | edh = 35.5277210872257 | epot = -1111.88748396144 | etot = -862.877046176351
21700  ekin = 122.487343081323 |  erot = 130.196013709642 | edyn = 252.683356790965 | ebond = 45.5503684882548 | eexcv = 0.194421136262774 | estk = -800.45443173501 | ehbond = -243.031475719206 | exstk = -121.867602952315 | ecoaxstk = -12.8507885579367 | edh = 35.3740268531106 | epot = -1097.08548248684 | etot = -844.402125695874
21800  ekin = 133.054496542592 |  erot = 139.689429160885 | edyn = 272.743925703477 | ebond = 32.5954560921692 | eexcv = 0 | estk = -817.397851083558 | ehbond = -237.15012248988 | exstk = -119.158197781672 | ecoaxstk = -18.3647117376622 | edh = 34.6364056656173 | epot = -1124.83902133499 | etot = -852.095095631509
21900  ekin = 118.518898852092 |  erot = 122.81761282607 | edyn = 241.336511678162 | ebond = 37.3604296795062 | eexcv = 0 | estk = -806.50453388452 | ehbond = -237.005261490802 | exstk = -121.344478842187 | ecoaxstk = -17.5077836464647 | edh = 35.100253429193 | epot = -1109.90137475527 | etot = -868.564863077113
22000  ekin = 130.997195537587 |  erot = 125.689504493814 | edyn = 256.686700031402 | ebond = 35.6027453153977 | eexcv = 0 | estk = -814.913459007961 | ehbond = -234.955468054996 | exstk = -122.037548870277 | ecoaxstk = -13.2991269590578 | edh = 35.5773844777124 | epot = -1114.02547309918 | etot = -857.33877306778
22100  ekin = 148.271007405868 |  erot = 124.84731189016 | edyn = 273.118319296028 | ebond = 41.2609187701262 | eexcv = 0 | estk = -817.753738345538 | ehbond = -246.247848304752 | exstk = -118.345813805056 | ecoaxstk = -14.581951308576 | edh = 35.6902797402223 | epot = -1119.97815325357 | etot = -846.859833957545
22200  ekin = 122.531827378065 |  erot = 126.307715865164 | edyn = 248.839543243229 | ebond = 45.0002970876189 | eexcv = 0 | estk = -803.781051654624 | ehbond = -232.163992162357 | exstk = -122.165323706293 | ecoaxstk = -12.1648380992634 | edh = 34.924806491717 | epot = -1090.3501020432 | etot = -841.510558799972
22300  ekin = 124.302451706689 |  erot = 143.527281532703 | edyn = 267.829733239392 | ebond = 37.2731445747438 | eexcv = 0 | estk = -807.390274366756 | ehbond = -226.680477854143 | exstk = -120.37543939146 | ecoaxstk = -8.65240917755744 | edh = 34.6316234715306 | epot = -1091.19383274364 | etot = -823.364099504249
22400  ekin = 134.107831185015 |  erot = 128.631202121853 | edyn = 262.739033306867 | ebond = 33.567619360714 | eexcv = 0 | estk = -816.689355263728 | ehbond = -243.942333975003 | exstk = -131.252932464106 | ecoaxstk = -7.85947274454372 | edh = 34.2187796548131 | epot = -1131.95769543185 | etot = -869.218662124986
22500  ekin = 139.237904904795 |  erot = 129.965166625848 | edyn = 269.203071530643 | ebond = 32.8655789147909 | eexcv = 0 | estk = -810.669676774444 | ehbond = -249.972260991434 | exstk = -124.059154604626 | ecoaxstk = -11.2995032037227 | edh = 34.0228621851589 | epot = -1129.11215447428 | etot = -859.909082943633
22600  ekin = 123.345758544284 |  erot = 129.986571427337 | edyn = 253.332329971621 | ebond = 38.1859993730471 | eexcv = 0 | estk = -821.00702733725 | ehbond = -234.409758571023 | exstk = -130.550928035859 | ecoaxstk = -12.5443704264448 | edh = 33.4725521117587 | epot = -1126.85353288577 | etot = -873.52120291415
22700  ekin = 141.496827424731 |  erot = 130.340533155493 | edyn = 271.837360580224 | ebond = 40.0694810042086 | eexcv = 0 | estk = -822.829428153803 | ehbond = -233.117718579317 | exstk = -129.134651613757 | ecoaxstk = -12.5024547287374 | edh = 33.1605735324497 | epot = -1124.35419853896 | etot = -852.516837958731
22800  ekin = 121.745475889809 |  erot = 133.242772564995 | edyn = 254.988248454804 | ebond = 42.9590763522582 | eexcv = 0.154765935039682 | estk = -822.783115349824 | ehbond = -230.575243477865 | exstk = -125.786447073189 | ecoaxstk = -17.1796413309939 | edh = 34.548865038495 | epot = -1118.66173990608 | etot = -863.673491451275
[...]
494000  ekin = 140.452051278851 |  erot = 138.194968528436 | edyn = 278.647019807288 | ebond = 42.9202113619394 | eexcv = 0 | estk = -841.330893233591 | ehbond = -325.84985638717 | exstk = -143.022333292223 | ecoaxstk = 0 | edh = 30.1367644364523 | epot = -1237.14610711459 | etot = -958.499087307304
494100  ekin = 138.261707729978 |  erot = 143.60170088327 | edyn = 281.863408613247 | ebond = 36.3602847124061 | eexcv = 0 | estk = -838.747774630661 | ehbond = -337.630261580864 | exstk = -139.949374713121 | ecoaxstk = 0 | edh = 30.0684867667247 | epot = -1249.89863944552 | etot = -968.035230832269
494200  ekin = 132.639429488047 |  erot = 129.87021724198 | edyn = 262.509646730027 | ebond = 40.6675616621049 | eexcv = 0 | estk = -846.927153831249 | ehbond = -325.166193301437 | exstk = -127.618543884675 | ecoaxstk = 0 | edh = 30.3535368757519 | epot = -1228.69079247951 | etot = -966.181145749478
494300  ekin = 134.985337956968 |  erot = 121.087094881954 | edyn = 256.072432838922 | ebond = 41.3321389046315 | eexcv = 0 | estk = -826.013244583391 | ehbond = -324.782397274394 | exstk = -134.043482522499 | ecoaxstk = 0 | edh = 30.0705400208179 | epot = -1213.43644545484 | etot = -957.364012615913
494400  ekin = 136.804586115666 |  erot = 140.870285079277 | edyn = 277.674871194943 | ebond = 39.2715979038444 | eexcv = 0 | estk = -833.788119385926 | ehbond = -348.475691471478 | exstk = -139.726854251995 | ecoaxstk = 0 | edh = 29.8507614298932 | epot = -1252.86830577566 | etot = -975.193434580719
494500  ekin = 123.24793901961 |  erot = 163.635556889052 | edyn = 286.883495908662 | ebond = 42.1350383326577 | eexcv = 0 | estk = -849.73741369221 | ehbond = -318.902092765157 | exstk = -138.615815019717 | ecoaxstk = 0 | edh = 30.13175456715 | epot = -1234.98852857728 | etot = -948.105032668614
494600  ekin = 133.850805969677 |  erot = 121.607270801634 | edyn = 255.45807677131 | ebond = 41.6634472191221 | eexcv = 0 | estk = -838.478880727351 | ehbond = -318.734351431974 | exstk = -144.082162643052 | ecoaxstk = 0 | edh = 29.8413113296744 | epot = -1229.79063625358 | etot = -974.332559482272
494700  ekin = 136.600214940061 |  erot = 117.907769448922 | edyn = 254.507984388983 | ebond = 38.4643552992209 | eexcv = 0 | estk = -847.383512730938 | ehbond = -336.351720936159 | exstk = -138.950895028905 | ecoaxstk = 0 | edh = 29.8998385503494 | epot = -1254.32193484643 | etot = -999.813950457448
494800  ekin = 131.779345709334 |  erot = 126.040406233219 | edyn = 257.819751942553 | ebond = 40.709191989733 | eexcv = 0 | estk = -850.611067734673 | ehbond = -323.909225498124 | exstk = -144.900851956671 | ecoaxstk = 0 | edh = 29.4972922660328 | epot = -1249.2146609337 | etot = -991.39490899115
494900  ekin = 127.029382472102 |  erot = 113.557304095955 | edyn = 240.586686568058 | ebond = 36.4316526945102 | eexcv = 0 | estk = -836.419126871504 | ehbond = -321.909522967186 | exstk = -146.28788364203 | ecoaxstk = 0 | edh = 29.7543624487772 | epot = -1238.43051833743 | etot = -997.843831769375
495000  ekin = 138.879402286214 |  erot = 123.717478966526 | edyn = 262.596881252739 | ebond = 53.4900623200026 | eexcv = 0 | estk = -845.127187974019 | ehbond = -306.871874448487 | exstk = -139.925194895054 | ecoaxstk = 0 | edh = 30.4831111548832 | epot = -1207.95108384267 | etot = -945.354202589935
495100  ekin = 142.991977088089 |  erot = 135.304611674237 | edyn = 278.296588762326 | ebond = 46.8595455901061 | eexcv = 0 | estk = -833.483424012833 | ehbond = -323.700820545423 | exstk = -139.87002112453 | ecoaxstk = 0 | edh = 30.3788265435549 | epot = -1219.81589354912 | etot = -941.519304786798
495200  ekin = 145.033901549448 |  erot = 138.373118715745 | edyn = 283.407020265194 | ebond = 37.5926214679069 | eexcv = 0 | estk = -837.134781476492 | ehbond = -330.012159235413 | exstk = -133.921820057589 | ecoaxstk = 0 | edh = 30.2858118164249 | epot = -1233.19032748516 | etot = -949.783307219968
495300  ekin = 137.183991641618 |  erot = 128.647378677644 | edyn = 265.831370319262 | ebond = 44.0490105601428 | eexcv = 0 | estk = -835.873507945476 | ehbond = -321.142698846486 | exstk = -132.98306750143 | ecoaxstk = 0 | edh = 30.6439445093072 | epot = -1215.30631922394 | etot = -949.474948904679
495400  ekin = 135.266773793507 |  erot = 123.588548066267 | edyn = 258.855321859774 | ebond = 47.6643421294439 | eexcv = 0 | estk = -840.840017195003 | ehbond = -316.601137239352 | exstk = -133.382839730682 | ecoaxstk = 0 | edh = 30.9299398937804 | epot = -1212.22971214181 | etot = -953.374390282039
495500  ekin = 134.048822155076 |  erot = 137.803755243073 | edyn = 271.852577398148 | ebond = 48.7065061958125 | eexcv = 0 | estk = -843.067268825383 | ehbond = -333.153289223175 | exstk = -136.093243796247 | ecoaxstk = 0 | edh = 31.1556011867804 | epot = -1232.45169446221 | etot = -960.599117064065
495600  ekin = 130.670232998969 |  erot = 144.632661162248 | edyn = 275.302894161217 | ebond = 42.2157942789993 | eexcv = 0 | estk = -834.115487019909 | ehbond = -330.281594921316 | exstk = -145.505994757539 | ecoaxstk = 0 | edh = 30.799622187715 | epot = -1236.88766023205 | etot = -961.584766070832
495700  ekin = 140.177696462244 |  erot = 119.726662259922 | edyn = 259.904358722166 | ebond = 42.3777845313164 | eexcv = 0 | estk = -855.404005766816 | ehbond = -313.764135335369 | exstk = -140.702230237822 | ecoaxstk = 0 | edh = 30.6913473172217 | epot = -1236.80123949147 | etot = -976.896880769304
495800  ekin = 129.17736711627 |  erot = 140.613600203229 | edyn = 269.790967319499 | ebond = 39.7228000761718 | eexcv = 0 | estk = -836.030533838485 | ehbond = -328.294208582582 | exstk = -150.065881761655 | ecoaxstk = 0 | edh = 30.3599224480123 | epot = -1244.30790165854 | etot = -974.516934339039
495900  ekin = 130.754477208532 |  erot = 116.597366343673 | edyn = 247.351843552205 | ebond = 47.351760717822 | eexcv = 0 | estk = -823.901066787941 | ehbond = -320.695949697788 | exstk = -156.457768282394 | ecoaxstk = 0 | edh = 29.8319525707488 | epot = -1223.87107147955 | etot = -976.519227927347
496000  ekin = 122.126426552945 |  erot = 121.260333235358 | edyn = 243.386759788303 | ebond = 49.5423955778605 | eexcv = 0 | estk = -847.913668626688 | ehbond = -316.912323316854 | exstk = -138.481829157465 | ecoaxstk = 0 | edh = 29.8273777961419 | epot = -1223.938047727 | etot = -980.551287938701
496100  ekin = 133.257203570179 |  erot = 136.304443247588 | edyn = 269.561646817767 | ebond = 43.33575892933 | eexcv = 0 | estk = -836.744897783728 | ehbond = -346.974482731292 | exstk = -146.347558482783 | ecoaxstk = 0 | edh = 29.2148942345234 | epot = -1257.51628583395 | etot = -987.954639016183
496200  ekin = 129.301338459279 |  erot = 131.509355564818 | edyn = 260.810694024097 | ebond = 35.8415602222653 | eexcv = 0 | estk = -818.100457767217 | ehbond = -328.859877783923 | exstk = -151.264733630897 | ecoaxstk = 0 | edh = 29.0281078905421 | epot = -1233.35540106923 | etot = -972.544707045133
496300  ekin = 136.954944842014 |  erot = 122.583168056487 | edyn = 259.5381128985 | ebond = 44.1654883298035 | eexcv = 0 | estk = -822.891725626017 | ehbond = -321.563284442413 | exstk = -149.049972093189 | ecoaxstk = 0 | edh = 28.9647443383901 | epot = -1220.37474949343 | etot = -960.836636594925
496400  ekin = 126.357983900883 |  erot = 135.527393602998 | edyn = 261.885377503881 | ebond = 52.1153313119532 | eexcv = 0 | estk = -843.279229959629 | ehbond = -331.752800217606 | exstk = -147.692301573986 | ecoaxstk = 0 | edh = 29.5673571799977 | epot = -1241.04164325927 | etot = -979.15626575539
496500  ekin = 129.919891757156 |  erot = 131.376930197427 | edyn = 261.296821954583 | ebond = 37.0632478018596 | eexcv = 0 | estk = -818.083597489329 | ehbond = -321.656713603514 | exstk = -151.531975489449 | ecoaxstk = 0 | edh = 29.059196661142 | epot = -1225.14984211929 | etot = -963.853020164708
496600  ekin = 131.926780694822 |  erot = 133.771329098156 | edyn = 265.698109792978 | ebond = 34.8393556064174 | eexcv = 0 | estk = -804.637367863459 | ehbond = -343.518907078772 | exstk = -150.213207430278 | ecoaxstk = 0 | edh = 29.0625600549444 | epot = -1234.46756671115 | etot = -968.76945691817
496700  ekin = 129.765738439558 |  erot = 124.754982300501 | edyn = 254.520720740059 | ebond = 39.4773738234474 | eexcv = 0 | estk = -833.109277091048 | ehbond = -333.492863038422 | exstk = -140.486076630095 | ecoaxstk = 0 | edh = 29.9925660309162 | epot = -1237.6182769052 | etot = -983.097556165143
496800  ekin = 145.344589581381 |  erot = 137.18830433564 | edyn = 282.532893917021 | ebond = 33.2616538278683 | eexcv = 0 | estk = -839.105064082133 | ehbond = -323.944973891826 | exstk = -148.284957273816 | ecoaxstk = 0 | edh = 30.378938355152 | epot = -1247.69440306476 | etot = -965.161509147735
496900  ekin = 115.214829833606 |  erot = 122.042988793418 | edyn = 237.257818627023 | ebond = 44.5985922405396 | eexcv = 0 | estk = -819.359762990995 | ehbond = -311.786578999878 | exstk = -150.534811707124 | ecoaxstk = 0 | edh = 30.1894868868219 | epot = -1206.89307457064 | etot = -969.635255943612
497000  ekin = 120.18987911391 |  erot = 147.613051154344 | edyn = 267.802930268254 | ebond = 30.1621525393697 | eexcv = 0 | estk = -822.429672960032 | ehbond = -327.439607913155 | exstk = -141.701640611674 | ecoaxstk = 0 | edh = 29.807864340261 | epot = -1231.60090460523 | etot = -963.797974336976
497100  ekin = 110.70333885578 |  erot = 137.542161022046 | edyn = 248.245499877826 | ebond = 41.756376133827 | eexcv = 0 | estk = -849.062071864715 | ehbond = -325.900304500607 | exstk = -129.856456686057 | ecoaxstk = 0 | edh = 30.3114150666002 | epot = -1232.75104185095 | etot = -984.505541973126
497200  ekin = 131.404706562033 |  erot = 137.764943193394 | edyn = 269.169649755426 | ebond = 45.0480611243293 | eexcv = 0 | estk = -848.284446380035 | ehbond = -329.334887821229 | exstk = -144.999704394359 | ecoaxstk = 0 | edh = 29.9609613544462 | epot = -1247.61001611685 | etot = -978.440366361421
497300  ekin = 130.111332511928 |  erot = 143.05261746964 | edyn = 273.163949981568 | ebond = 34.2484869213182 | eexcv = 0 | estk = -820.932116006396 | ehbond = -336.848946362037 | exstk = -143.492350378986 | ecoaxstk = 0 | edh = 29.637637997709 | epot = -1237.38728782839 | etot = -964.223337846823
497400  ekin = 121.628515580767 |  erot = 125.135859086258 | edyn = 246.764374667025 | ebond = 38.3679301676245 | eexcv = 0 | estk = -828.663458199204 | ehbond = -348.757815419232 | exstk = -131.964545325449 | ecoaxstk = 0 | edh = 29.4933916309974 | epot = -1241.52449714526 | etot = -994.760122478239
497500  ekin = 129.304686716762 |  erot = 133.666785644363 | edyn = 262.971472361126 | ebond = 41.9996203925916 | eexcv = 0 | estk = -848.636558570249 | ehbond = -325.681258666478 | exstk = -139.523309920362 | ecoaxstk = 0 | edh = 29.5308988299082 | epot = -1242.31060793459 | etot = -979.339135573463
497600  ekin = 132.347065972409 |  erot = 144.247669428623 | edyn = 276.594735401032 | ebond = 43.0149306003263 | eexcv = 0 | estk = -822.007200869559 | ehbond = -337.53162983737 | exstk = -146.014883285455 | ecoaxstk = 0 | edh = 29.497204304311 | epot = -1233.04157908775 | etot = -956.446843686715
497700  ekin = 144.324297763447 |  erot = 127.498484772737 | edyn = 271.822782536183 | ebond = 38.7397234784919 | eexcv = 0 | estk = -835.071166259431 | ehbond = -332.223760586666 | exstk = -138.523604803632 | ecoaxstk = 0 | edh = 29.3485613205574 | epot = -1237.73024685068 | etot = -965.907464314497
497800  ekin = 137.792718854268 |  erot = 109.808104697871 | edyn = 247.600823552139 | ebond = 40.4612175210711 | eexcv = 0 | estk = -821.714689245533 | ehbond = -330.224253783337 | exstk = -142.807874814359 | ecoaxstk = 0 | edh = 29.6431402679954 | epot = -1224.64246005416 | etot = -977.041636502023
497900  ekin = 128.067528008405 |  erot = 127.905948234909 | edyn = 255.973476243314 | ebond = 43.0215048140864 | eexcv = 0 | estk = -833.125587009716 | ehbond = -313.872312208388 | exstk = -144.179246568928 | ecoaxstk = 0 | edh = 29.7772272579196 | epot = -1218.37841371503 | etot = -962.404937471712
498000  ekin = 139.885562067653 |  erot = 141.864478060665 | edyn = 281.750040128317 | ebond = 35.5328730149293 | eexcv = 0 | estk = -832.736110006867 | ehbond = -299.240363022218 | exstk = -149.679540707127 | ecoaxstk = 0 | edh = 30.1497350666856 | epot = -1215.9734056546 | etot = -934.22336552628
498100  ekin = 132.51111102484 |  erot = 126.613739905451 | edyn = 259.124850930292 | ebond = 35.2663427253053 | eexcv = 0 | estk = -840.741344744542 | ehbond = -324.536793373063 | exstk = -134.695590256223 | ecoaxstk = 0 | edh = 29.9572101783358 | epot = -1234.75017547019 | etot = -975.625324539896
498200  ekin = 130.936853221646 |  erot = 148.658101592638 | edyn = 279.594954814284 | ebond = 41.8230022899161 | eexcv = 1.04075303354582 | estk = -837.684667451599 | ehbond = -322.340646586283 | exstk = -141.336171885632 | ecoaxstk = 0 | edh = 30.0075574136483 | epot = -1228.4901731864 | etot = -948.89521837212
498300  ekin = 125.64606776997 |  erot = 118.308533828628 | edyn = 243.954601598599 | ebond = 41.9101645094788 | eexcv = 0 | estk = -835.012768005726 | ehbond = -320.984817647352 | exstk = -136.053038905357 | ecoaxstk = 0 | edh = 29.7453530750775 | epot = -1220.39510697388 | etot = -976.440505375281
498400  ekin = 120.572373295595 |  erot = 131.266734662221 | edyn = 251.839107957816 | ebond = 37.7735457467068 | eexcv = 0 | estk = -846.836137466402 | ehbond = -324.635120065868 | exstk = -142.510795636881 | ecoaxstk = 0 | edh = 29.5689438935352 | epot = -1246.63956352891 | etot = -994.800455571093
498500  ekin = 134.489167053141 |  erot = 142.378199052304 | edyn = 276.867366105445 | ebond = 36.4960892323478 | eexcv = 0 | estk = -838.846568697291 | ehbond = -314.944954122834 | exstk = -146.635966686734 | ecoaxstk = 0 | edh = 29.6347475801949 | epot = -1234.29665269432 | etot = -957.429286588872
498600  ekin = 137.478321732334 |  erot = 131.4738575135 | edyn = 268.952179245834 | ebond = 47.2535282989894 | eexcv = 0 | estk = -828.389679686889 | ehbond = -320.828408454783 | exstk = -140.316144414294 | ecoaxstk = 0 | edh = 29.810691619558 | epot = -1212.47001263742 | etot = -943.517833391585
498700  ekin = 120.138048780985 |  erot = 146.619682095109 | edyn = 266.757730876094 | ebond = 42.8229969676264 | eexcv = 0 | estk = -803.873305707966 | ehbond = -312.447663734312 | exstk = -144.7418228215 | ecoaxstk = 0 | edh = 30.1612367195989 | epot = -1188.07855857655 | etot = -921.320827700459
498800  ekin = 130.029951658462 |  erot = 126.241282595147 | edyn = 256.271234253609 | ebond = 37.6337918708194 | eexcv = 0 | estk = -813.221422083874 | ehbond = -313.890697751539 | exstk = -155.014354457545 | ecoaxstk = 0 | edh = 29.6325237196087 | epot = -1214.86015870253 | etot = -958.588924448921
498900  ekin = 121.278493930746 |  erot = 138.396464835096 | edyn = 259.674958765842 | ebond = 44.1697354384622 | eexcv = 0 | estk = -817.414013942746 | ehbond = -329.35958204862 | exstk = -147.81399766528 | ecoaxstk = 0 | edh = 29.6746124948795 | epot = -1220.7432457233 | etot = -961.068286957463
499000  ekin = 128.21671443817 |  erot = 124.800989248682 | edyn = 253.017703686852 | ebond = 47.6575054754636 | eexcv = 0 | estk = -821.405405085644 | ehbond = -332.991658650402 | exstk = -134.047308166168 | ecoaxstk = 0 | edh = 30.0575911878135 | epot = -1210.72927523894 | etot = -957.711571552085
499100  ekin = 141.906878378978 |  erot = 135.744087105103 | edyn = 277.650965484081 | ebond = 36.4731809597809 | eexcv = 0 | estk = -829.984864216654 | ehbond = -331.116412709791 | exstk = -144.19128772788 | ecoaxstk = 0 | edh = 29.3776469178843 | epot = -1239.44173677666 | etot = -961.790771292579
499200  ekin = 118.243454379679 |  erot = 128.433353903408 | edyn = 246.676808283086 | ebond = 49.3034443995165 | eexcv = 0 | estk = -835.888940037954 | ehbond = -339.675157615404 | exstk = -140.370839706274 | ecoaxstk = 0 | edh = 29.5976316648686 | epot = -1237.03386129525 | etot = -990.357053012161
499300  ekin = 128.63921777631 |  erot = 125.320712511706 | edyn = 253.959930288016 | ebond = 49.8147944064514 | eexcv = 0 | estk = -831.366410778483 | ehbond = -338.169611417557 | exstk = -137.510671027013 | ecoaxstk = 0 | edh = 29.3329954997274 | epot = -1227.89890331687 | etot = -973.938973028859
499400  ekin = 139.63292963447 |  erot = 113.465313366578 | edyn = 253.098243001048 | ebond = 44.4933339977905 | eexcv = 0 | estk = -813.849407783213 | ehbond = -320.865563890272 | exstk = -139.297474220388 | ecoaxstk = 0 | edh = 29.6442341488452 | epot = -1199.87487774724 | etot = -946.776634746189
499500  ekin = 129.394200610725 |  erot = 134.139345591946 | edyn = 263.533546202671 | ebond = 47.9776649787077 | eexcv = 0 | estk = -836.701429831136 | ehbond = -327.894156508256 | exstk = -145.443308148274 | ecoaxstk = 0 | edh = 30.0902790277201 | epot = -1231.97095048124 | etot = -968.437404278567
499600  ekin = 134.69193364576 |  erot = 137.156382931406 | edyn = 271.848316577166 | ebond = 43.8884610191984 | eexcv = 0 | estk = -842.095294637632 | ehbond = -315.464355410352 | exstk = -133.163338709769 | ecoaxstk = 0 | edh = 30.3114336347819 | epot = -1216.52309410377 | etot = -944.674777526606
499700  ekin = 131.655170406121 |  erot = 149.28325910879 | edyn = 280.938429514911 | ebond = 44.2809149391763 | eexcv = 0 | estk = -830.473120245425 | ehbond = -334.764769625676 | exstk = -135.794324562222 | ecoaxstk = 0 | edh = 29.5911325393017 | epot = -1227.16016695485 | etot = -946.221737439934
499800  ekin = 132.721824345203 |  erot = 129.128289078017 | edyn = 261.85011342322 | ebond = 35.2011085762011 | eexcv = 0 | estk = -856.564661853566 | ehbond = -315.158427401214 | exstk = -139.192258447149 | ecoaxstk = 0 | edh = 29.9388790747834 | epot = -1245.77536005095 | etot = -983.925246627725
499900  ekin = 135.407518295549 |  erot = 134.934393710217 | edyn = 270.341912005766 | ebond = 41.5139098991103 | eexcv = 0 | estk = -844.689323707291 | ehbond = -333.379918583138 | exstk = -143.641440134711 | ecoaxstk = 0 | edh = 29.582301570971 | epot = -1250.61447095506 | etot = -980.272558949291
500000  ekin = 127.731042083332 |  erot = 138.27629660914 | edyn = 266.007338692473 | ebond = 33.1674976813696 | eexcv = 0 | estk = -838.481030542696 | ehbond = -311.663077762334 | exstk = -150.899573036523 | ecoaxstk = 0 | edh = 29.1939792454778 | epot = -1238.68220441471 | etot = -972.674865722233
    500000   291.5042      -1271.8497      33.167498     -1110.9512     -0.00107757     6.1629505e+08
Loop time of 40.6312 on 8 procs for 500000 steps with 148 atoms

Performance: 9066.797 ns/day, 0.003 hours/ns, 12305.811 timesteps/s, 1.821 Matom-step/s
99.9% CPU use with 8 MPI tasks x no OpenMP threads

MPI task timing breakdown:
Section |  min time  |  avg time  |  max time  |%varavg| %total
---------------------------------------------------------------
Pair    | 1.0535     | 14.791     | 26.894     | 223.7 | 36.40
Bond    | 0.045099   | 0.23815    | 0.40661    |  25.6 |  0.59
Neigh   | 0.010618   | 0.010653   | 0.010676   |   0.0 |  0.03
Comm    | 7.306      | 18.936     | 31.09      | 183.5 | 46.60
Output  | 0.053834   | 0.062278   | 0.068553   |   2.2 |  0.15
Modify  | 3.5542     | 4.4617     | 5.3145     |  28.2 | 10.98
Other   |            | 2.132      |            |       |  5.25

Nlocal:           18.5 ave          36 max           2 min
Histogram: 4 0 0 0 0 0 0 0 2 2
Nghost:          129.5 ave         146 max         112 min
Histogram: 2 2 0 0 0 0 0 0 0 4
Neighs:        559.875 ave        1483 max          54 min
Histogram: 4 0 0 0 1 1 1 0 0 1

Total # of neighbors = 4479
Ave neighs/atom = 30.263514
Ave special neighs/atom = 6
Neighbor list builds = 523
Dangerous builds = 0

#write_data last_config.${number}.* nocoeff
#write_restart last_config.${number}.*
Total wall time: 0:00:40
