LAMMPS (30 Mar 2026 - Development - patch_30Mar2026-559-g96fcefc09d-modified)
OMP_NUM_THREADS environment is not set. Defaulting to 1 thread.
  using 1 OpenMP thread(s) per MPI task
variable number	equal 6
variable ofreq	equal 1000
variable efreq	equal 100
variable T      equal 300.0
variable rhos   equal 0.2
variable nsteps equal 500000

units real

dimension 3

newton on

boundary  p p p

atom_style hybrid bond ellipsoid oxdna
WARNING: Atom style hybrid defines both, per-type and per-atom masses; both must be set, but only per-atom masses will be used (src/atom_vec_hybrid.cpp:132)
atom_modify sort 0 8.518

# Pair interactions require lists of neighbours to be calculated
neighbor 17.036 bin
neigh_modify every 1 delay 0 check yes

fix Basepairs all property/atom i_idc ghost yes
read_data data.dsring2 fix Basepairs NULL Basepairs
Reading data file ...
  orthogonal box = (0 0 0) to (851 851 851)
  2 by 2 by 2 MPI processor grid
  reading atoms ...
  148 atoms
  reading velocities ...
  148 velocities
  scanning bonds ...
  1 = max bonds/atom
  148 ellipsoids
  orthogonal box = (0 0 0) to (851 851 851)
  2 by 2 by 2 MPI processor grid
  reading bonds ...
  148 bonds
Finding 1-2 1-3 1-4 neighbors ...
  special bond factors lj:    0        0        0       
  special bond factors coul:  0        0        0       
     2 = max # of 1-2 neighbors
     2 = max # of 1-3 neighbors
     4 = max # of 1-4 neighbors
     6 = max # of special neighbors
  special bonds CPU = 0.000 seconds
  read_data CPU = 0.004 seconds

set atom * mass 315.75
Setting atom values ...
  148 settings made for mass

group all type 1 4
148 atoms in group all

# oxDNA3 bond interactions - FENE backbone
bond_style hybrid oxdna3/fene
bond_coeff * oxdna3/fene oxdna3_real.cgdna
Reading oxdna3 potential (fene) file oxdna3_real.cgdna with DATE: 2026-03-26
special_bonds lj 0 1 1
Finding 1-2 1-3 1-4 neighbors ...
  special bond factors lj:    0        1        1       
  special bond factors coul:  0        0        0       
     2 = max # of 1-2 neighbors
     2 = max # of 1-3 neighbors
     4 = max # of 1-4 neighbors
     6 = max # of special neighbors
  special bonds CPU = 0.000 seconds

# oxDNA3 pair interactions
pair_style hybrid/overlay oxdna3/excv oxdna3/stk oxdna3/hbond oxdna3/xstk oxdna3/coaxstk oxdna3/dh
pair_coeff * * oxdna3/excv     oxdna3_real.cgdna
Reading oxdna3 potential (excv) file oxdna3_real.cgdna with DATE: 2026-03-26
pair_coeff * * oxdna3/stk      ${T} oxdna3_real.cgdna
pair_coeff * * oxdna3/stk      300 oxdna3_real.cgdna
Reading oxdna3 potential (stk) file oxdna3_real.cgdna with DATE: 2026-03-26
pair_coeff * * oxdna3/hbond    oxdna3_real.cgdna
Reading oxdna3 potential (hbond) file oxdna3_real.cgdna with DATE: 2026-03-26
pair_coeff 1 4 oxdna3/hbond    oxdna3_real.cgdna
Reading oxdna3 potential (hbond) file oxdna3_real.cgdna with DATE: 2026-03-26
pair_coeff 2 3 oxdna3/hbond    oxdna3_real.cgdna
Reading oxdna3 potential (hbond) file oxdna3_real.cgdna with DATE: 2026-03-26
pair_coeff * * oxdna3/xstk     oxdna3_real.cgdna
Reading oxdna3 potential (xstk) file oxdna3_real.cgdna with DATE: 2026-03-26
pair_coeff * * oxdna3/coaxstk  oxdna3_real.cgdna
Reading oxdna potential (coaxstk) file oxdna3_real.cgdna with DATE: 2026-03-26
pair_coeff * * oxdna3/dh       ${T} ${rhos} oxdna2_real.cgdna
pair_coeff * * oxdna3/dh       300 ${rhos} oxdna2_real.cgdna
pair_coeff * * oxdna3/dh       300 0.2 oxdna2_real.cgdna
Reading oxdna potential (dh) file oxdna2_real.cgdna with DATE: 2026-03-04

# NVE ensemble
fix 1 all nve/asphere
fix 2 all langevin ${T} ${T} 4263.83 457145 angmom 10
fix 2 all langevin 300 ${T} 4263.83 457145 angmom 10
fix 2 all langevin 300 300 4263.83 457145 angmom 10

timestep 8.527660860351011

#comm_style tiled
fix 3 all balance 1000 1.03 shift xyz 10 1.03
comm_modify cutoff 32.4

compute quat all property/atom quatw quati quatj quatk

compute erot all erotate/asphere
compute ekin all ke
compute epot all pe

compute ebond all bond
compute eexcv all pair oxdna3/excv
compute estk  all pair oxdna3/stk
compute ehbond all pair oxdna3/hbond
compute exstk all pair oxdna3/xstk
compute ecoaxstk all pair oxdna3/coaxstk
compute edh all pair oxdna3/dh

variable erot equal c_erot
variable ekin equal c_ekin
variable edyn equal c_erot+c_ekin
variable epot equal c_epot
variable etot equal c_erot+c_ekin+c_epot

variable ebond equal c_ebond[1]
variable eexcv equal c_eexcv
variable estk equal c_estk
variable ehbond equal c_ehbond
variable exstk equal c_exstk
variable ecoaxstk equal c_ecoaxstk
variable edh equal c_edh

fix 5 all print ${efreq} "$(step)  ekin = ${ekin} |  erot = ${erot} | edyn = ${edyn} | ebond = ${ebond} | eexcv = ${eexcv} | estk = ${estk} | ehbond = ${ehbond} | exstk = ${exstk} | ecoaxstk = ${ecoaxstk} | edh = ${edh} | epot = ${epot} | etot = ${etot}" screen yes
fix 5 all print 100 "$(step)  ekin = ${ekin} |  erot = ${erot} | edyn = ${edyn} | ebond = ${ebond} | eexcv = ${eexcv} | estk = ${estk} | ehbond = ${ehbond} | exstk = ${exstk} | ecoaxstk = ${ecoaxstk} | edh = ${edh} | epot = ${epot} | etot = ${etot}" screen yes

dump out all custom ${ofreq} out.${number}.lammpstrj id mol type x y z ix iy iz vx vy vz c_quat[1] c_quat[2] c_quat[3] c_quat[4] angmomx angmomy angmomz
dump out all custom 1000 out.${number}.lammpstrj id mol type x y z ix iy iz vx vy vz c_quat[1] c_quat[2] c_quat[3] c_quat[4] angmomx angmomy angmomz
dump out all custom 1000 out.6.lammpstrj id mol type x y z ix iy iz vx vy vz c_quat[1] c_quat[2] c_quat[3] c_quat[4] angmomx angmomy angmomz
dump_modify out sort id
dump_modify out format line "%d %d %d  %22.15le %22.15le %22.15le  %d %d %d  %22.15le %22.15le %22.15le  %22.15le %22.15le %22.15le %22.15le  %22.15le %22.15le %22.15le"

run ${nsteps}
run 500000
Parsing unique base pairing
Generated 0 of 6 mixed pair_coeff terms from geometric mixing rule
Neighbor list info ...
  update: every = 1 steps, delay = 0 steps, check = yes
  max neighbors/atom: 2000, page size: 100000
  master list distance cutoff = 48.032697
  ghost atom cutoff = 48.032697
  binsize = 24.016348, bins = 36 36 36
  5 neighbor lists, perpetual/occasional/extra = 5 0 0
  (1) pair oxdna3/excv, perpetual
      attributes: half, newton on
      pair build: half/bin/newton
      stencil: half/bin/3d
      bin: standard
  (2) pair oxdna3/hbond, perpetual, copy from (1)
      attributes: half, newton on
      pair build: copy
      stencil: none
      bin: none
  (3) pair oxdna3/xstk, perpetual, copy from (1)
      attributes: half, newton on
      pair build: copy
      stencil: none
      bin: none
  (4) pair oxdna3/coaxstk, perpetual, copy from (1)
      attributes: half, newton on
      pair build: copy
      stencil: none
      bin: none
  (5) pair oxdna3/dh, perpetual, copy from (1)
      attributes: half, newton on
      pair build: copy
      stencil: none
      bin: none
WARNING: Communication cutoff adjusted to 48.03269686950012 (src/comm.cpp:703)
0  ekin = 117.710013213207 |  erot = 127.571676566791 | edyn = 245.281689779998 | ebond = 97.0655034280061 | eexcv = 0 | estk = -844.778703807488 | ehbond = 0 | exstk = -112.289495929798 | ecoaxstk = 0 | edh = 29.4035903453316 | epot = -830.599105963949 | etot = -585.317416183951
Per MPI rank memory allocation (min/avg/max) = 8.987 | 9.019 | 9.087 Mbytes
   Step          Temp          E_pair         E_mol          TotEng         Press          Volume    
         0   268.63449     -927.66461      97.065503     -712.88909      0.011430646    6.1629505e+08
100  ekin = 143.633893877871 |  erot = 140.340660147247 | edyn = 283.974554025119 | ebond = 50.773715952401 | eexcv = 0 | estk = -807.046032295655 | ehbond = -1.31226078759228 | exstk = -131.643426145757 | ecoaxstk = 0 | edh = 29.7088836165148 | epot = -859.519119660088 | etot = -575.54456563497
200  ekin = 144.366869017677 |  erot = 130.106759675079 | edyn = 274.473628692756 | ebond = 43.0102959853046 | eexcv = 0.376789865350341 | estk = -821.582803119887 | ehbond = -4.92394742247512 | exstk = -114.275732817645 | ecoaxstk = 0 | edh = 31.1252267609228 | epot = -866.27017074843 | etot = -591.796542055674
300  ekin = 145.373203773419 |  erot = 119.38220463773 | edyn = 264.755408411149 | ebond = 45.4856320087695 | eexcv = 2.56201519628415 | estk = -835.136515670122 | ehbond = -4.59419717312299 | exstk = -107.029233396177 | ecoaxstk = 0 | edh = 31.7599764089309 | epot = -866.952322625437 | etot = -602.196914214288
400  ekin = 143.103546816442 |  erot = 149.033438495674 | edyn = 292.136985312116 | ebond = 33.6489613076228 | eexcv = 0 | estk = -849.025628992223 | ehbond = -6.78545111146088 | exstk = -107.564604083772 | ecoaxstk = 0 | edh = 32.4555846697777 | epot = -897.271138210055 | etot = -605.134152897939
500  ekin = 139.710954347039 |  erot = 118.395231394714 | edyn = 258.106185741753 | ebond = 37.5605536152946 | eexcv = 0 | estk = -836.848076740987 | ehbond = -8.35038505636333 | exstk = -107.105869292297 | ecoaxstk = 0 | edh = 32.6308484210758 | epot = -882.112929053277 | etot = -624.006743311523
600  ekin = 157.217188782917 |  erot = 129.361850439271 | edyn = 286.579039222188 | ebond = 37.3454422206112 | eexcv = 0 | estk = -844.067557404656 | ehbond = -18.5645096114385 | exstk = -103.979570681188 | ecoaxstk = 0 | edh = 32.5074703201351 | epot = -896.758725156536 | etot = -610.179685934348
700  ekin = 127.744350085136 |  erot = 135.103146796136 | edyn = 262.847496881272 | ebond = 42.7731919532023 | eexcv = 0.218981500882684 | estk = -848.115549915519 | ehbond = -18.1157374901056 | exstk = -106.449206899249 | ecoaxstk = 0 | edh = 32.821790763771 | epot = -896.866530087017 | etot = -634.019033205745
800  ekin = 140.638318086273 |  erot = 155.13856701432 | edyn = 295.776885100593 | ebond = 39.0400491627791 | eexcv = 0 | estk = -846.093785164414 | ehbond = -25.3132909628872 | exstk = -100.737558244541 | ecoaxstk = 0 | edh = 33.7838956748843 | epot = -899.320689534179 | etot = -603.543804433586
900  ekin = 159.189277493972 |  erot = 137.521074319799 | edyn = 296.710351813772 | ebond = 48.6944896298294 | eexcv = 0 | estk = -840.805901419415 | ehbond = -37.9015768939006 | exstk = -86.6280817359031 | ecoaxstk = 0 | edh = 33.3814129306771 | epot = -883.259657488713 | etot = -586.549305674941
1000  ekin = 137.610283844976 |  erot = 135.350887993309 | edyn = 272.961171838285 | ebond = 48.253237453719 | eexcv = 0.0604876181338552 | estk = -832.545205533983 | ehbond = -39.7705836191161 | exstk = -108.056983724888 | ecoaxstk = 0 | edh = 32.5715968152849 | epot = -899.487450990849 | etot = -626.526279152564
1100  ekin = 146.483398049669 |  erot = 128.209524499654 | edyn = 274.692922549323 | ebond = 45.4019232054748 | eexcv = 0.0435694921580595 | estk = -834.704492328319 | ehbond = -42.4558202311341 | exstk = -100.009044432967 | ecoaxstk = 0 | edh = 31.9162013524505 | epot = -899.807662942337 | etot = -625.114740393013
1200  ekin = 140.779051476913 |  erot = 128.021820022486 | edyn = 268.800871499399 | ebond = 50.1912428214732 | eexcv = 0 | estk = -825.059138756091 | ehbond = -57.703613626152 | exstk = -105.616129552744 | ecoaxstk = 0 | edh = 31.2845619676906 | epot = -906.903077145824 | etot = -638.102205646425
1300  ekin = 132.919584213374 |  erot = 139.083373442121 | edyn = 272.002957655495 | ebond = 51.2292428745023 | eexcv = 0 | estk = -847.766662883166 | ehbond = -66.7277960974745 | exstk = -112.506912686738 | ecoaxstk = 0 | edh = 32.1063117531607 | epot = -943.665817039716 | etot = -671.662859384221
1400  ekin = 131.852715560093 |  erot = 150.958891564954 | edyn = 282.811607125047 | ebond = 35.7726414175186 | eexcv = 0.174556327442251 | estk = -868.485229477748 | ehbond = -63.0183215969185 | exstk = -117.064774557674 | ecoaxstk = 0 | edh = 32.6429041163084 | epot = -979.978223771071 | etot = -697.166616646024
1500  ekin = 123.792812111155 |  erot = 137.897235830113 | edyn = 261.690047941268 | ebond = 43.633057495512 | eexcv = 0 | estk = -873.639201266237 | ehbond = -69.019912359709 | exstk = -118.033732971096 | ecoaxstk = 0 | edh = 32.8902150392595 | epot = -984.169574062271 | etot = -722.479526121003
1600  ekin = 141.794439959951 |  erot = 127.871597974699 | edyn = 269.66603793465 | ebond = 44.657354035234 | eexcv = 0 | estk = -864.934190492938 | ehbond = -72.4080637303661 | exstk = -122.164944024598 | ecoaxstk = 0 | edh = 33.0380235476251 | epot = -981.811820665043 | etot = -712.145782730394
1700  ekin = 120.007266852403 |  erot = 139.425697555302 | edyn = 259.432964407705 | ebond = 45.2673399238113 | eexcv = 0 | estk = -869.705676841085 | ehbond = -78.1250723070648 | exstk = -119.321995368138 | ecoaxstk = 0 | edh = 33.6284746564086 | epot = -988.256929936068 | etot = -728.823965528363
1800  ekin = 130.135057560956 |  erot = 133.659348005922 | edyn = 263.794405566878 | ebond = 39.2313290855158 | eexcv = 0 | estk = -860.608732073627 | ehbond = -67.0758073708836 | exstk = -123.312272802099 | ecoaxstk = 0 | edh = 33.8244194502927 | epot = -977.941063710801 | etot = -714.146658143923
1900  ekin = 134.203976479364 |  erot = 127.254611146964 | edyn = 261.458587626328 | ebond = 41.5108500498904 | eexcv = 0 | estk = -860.443093330975 | ehbond = -67.7811298948667 | exstk = -129.153913472673 | ecoaxstk = 0 | edh = 34.0475458521615 | epot = -981.819740796462 | etot = -720.361153170134
2000  ekin = 132.810747797407 |  erot = 120.687161365891 | edyn = 253.497909163298 | ebond = 42.3057187050663 | eexcv = 0 | estk = -843.326449396613 | ehbond = -72.1902315972242 | exstk = -122.92592289142 | ecoaxstk = 0 | edh = 34.7094263032193 | epot = -961.427458876972 | etot = -707.929549713674
2100  ekin = 140.264330198666 |  erot = 145.099726801041 | edyn = 285.364056999707 | ebond = 38.8250243717591 | eexcv = 0 | estk = -878.912473586106 | ehbond = -71.9743559432153 | exstk = -120.902564507944 | ecoaxstk = 0 | edh = 35.7515020961145 | epot = -997.212867569392 | etot = -711.848810569685
2200  ekin = 125.879287297273 |  erot = 116.212327273236 | edyn = 242.091614570509 | ebond = 51.3698574123522 | eexcv = 0 | estk = -858.740938008427 | ehbond = -72.0132567258168 | exstk = -119.18707920883 | ecoaxstk = 0 | edh = 36.0333500931549 | epot = -962.538066437566 | etot = -720.446451867057
2300  ekin = 140.236942101838 |  erot = 148.08886629544 | edyn = 288.325808397278 | ebond = 43.9562603535793 | eexcv = 0 | estk = -855.472198647334 | ehbond = -75.0407604578849 | exstk = -121.815683997323 | ecoaxstk = 0 | edh = 35.4026153962943 | epot = -972.969767352668 | etot = -684.64395895539
2400  ekin = 139.624676031555 |  erot = 147.72999656618 | edyn = 287.354672597735 | ebond = 47.1374346006639 | eexcv = 0.36984608946476 | estk = -851.942986910889 | ehbond = -66.7309284599448 | exstk = -123.099127285917 | ecoaxstk = 0 | edh = 34.0767304030778 | epot = -960.189031563545 | etot = -672.83435896581
2500  ekin = 140.738810371325 |  erot = 132.602437884558 | edyn = 273.341248255883 | ebond = 39.1211915105475 | eexcv = 0.213550691428038 | estk = -854.445130604271 | ehbond = -78.3999853746187 | exstk = -120.144160534104 | ecoaxstk = 0 | edh = 34.4484641687412 | epot = -979.206070142277 | etot = -705.864821886394
2600  ekin = 128.473713210424 |  erot = 127.964339496836 | edyn = 256.438052707259 | ebond = 37.6370389080901 | eexcv = 0 | estk = -835.455671406561 | ehbond = -66.0700771505221 | exstk = -121.919410612099 | ecoaxstk = 0 | edh = 34.650921153481 | epot = -951.157199107611 | etot = -694.719146400352
2700  ekin = 146.432979557223 |  erot = 116.125915932388 | edyn = 262.558895489611 | ebond = 39.9436392821983 | eexcv = 0.869561120368266 | estk = -846.609141252226 | ehbond = -82.2901078006637 | exstk = -122.776637686268 | ecoaxstk = 0 | edh = 35.844600004673 | epot = -975.018086331918 | etot = -712.459190842306
2800  ekin = 157.208925233551 |  erot = 154.20925726663 | edyn = 311.418182500182 | ebond = 41.5810409740122 | eexcv = 0.0394153198212666 | estk = -850.516471640531 | ehbond = -73.8804631413769 | exstk = -130.769087625534 | ecoaxstk = 0 | edh = 35.498607412188 | epot = -978.04695870142 | etot = -666.628776201239
2900  ekin = 139.913247899385 |  erot = 138.798687722142 | edyn = 278.711935621527 | ebond = 42.8113853893146 | eexcv = 0.520801760964579 | estk = -830.330680067386 | ehbond = -76.6765320199764 | exstk = -120.322920824462 | ecoaxstk = 0 | edh = 35.051293449912 | epot = -948.946652311632 | etot = -670.234716690105
3000  ekin = 151.06517072357 |  erot = 145.530369600123 | edyn = 296.595540323693 | ebond = 44.8456906542711 | eexcv = 0.578949281844324 | estk = -849.414653699203 | ehbond = -80.5793738619621 | exstk = -118.624367042057 | ecoaxstk = 0 | edh = 35.6896915075178 | epot = -967.504063159588 | etot = -670.908522835895
3100  ekin = 145.291659863805 |  erot = 148.861466870641 | edyn = 294.153126734446 | ebond = 44.0805970582239 | eexcv = 0 | estk = -859.018947578403 | ehbond = -83.0013860904964 | exstk = -114.584196032891 | ecoaxstk = 0 | edh = 35.7844399445181 | epot = -976.739492699048 | etot = -682.586365964602
3200  ekin = 139.648866846991 |  erot = 133.996831683742 | edyn = 273.645698530733 | ebond = 48.3239676562864 | eexcv = 0.00193512587360269 | estk = -853.020470057365 | ehbond = -91.8812257277994 | exstk = -113.678569370298 | ecoaxstk = 0 | edh = 35.6215776866145 | epot = -974.632784686688 | etot = -700.987086155955
3300  ekin = 138.6826780321 |  erot = 125.424384603992 | edyn = 264.107062636092 | ebond = 44.82669359661 | eexcv = 0 | estk = -854.476662836257 | ehbond = -84.4787923836607 | exstk = -132.219987762508 | ecoaxstk = 0 | edh = 36.4006098284443 | epot = -989.948139557372 | etot = -725.84107692128
3400  ekin = 149.944468228036 |  erot = 125.388934188373 | edyn = 275.333402416409 | ebond = 44.861459444425 | eexcv = 0.00938830867767244 | estk = -855.295365804771 | ehbond = -85.1656901333563 | exstk = -114.762085474441 | ecoaxstk = 0 | edh = 36.3537586055065 | epot = -973.998535053959 | etot = -698.66513263755
3500  ekin = 144.780426544303 |  erot = 140.153504806187 | edyn = 284.93393135049 | ebond = 36.2830070549358 | eexcv = 0 | estk = -860.882834271591 | ehbond = -86.4468140261827 | exstk = -115.469180207047 | ecoaxstk = 0 | edh = 35.5856474703537 | epot = -990.930173979532 | etot = -705.996242629042
3600  ekin = 108.730900107123 |  erot = 126.357017046205 | edyn = 235.087917153328 | ebond = 48.1254480268654 | eexcv = 0 | estk = -851.114403979448 | ehbond = -88.3985161962499 | exstk = -118.434306384099 | ecoaxstk = 0 | edh = 35.5079602496142 | epot = -974.313818283317 | etot = -739.225901129989
3700  ekin = 120.402896773459 |  erot = 136.133462594254 | edyn = 256.536359367712 | ebond = 35.2271896350537 | eexcv = 0.505145031399951 | estk = -858.266222318413 | ehbond = -76.5870414760161 | exstk = -123.205728264044 | ecoaxstk = 0 | edh = 34.7786487261961 | epot = -987.548008665823 | etot = -731.011649298111
3800  ekin = 121.430913771457 |  erot = 122.184728714793 | edyn = 243.61564248625 | ebond = 42.67211938948 | eexcv = 0 | estk = -871.599587649921 | ehbond = -92.9581755409401 | exstk = -120.986011369916 | ecoaxstk = 0 | edh = 34.7652982462621 | epot = -1008.10635692503 | etot = -764.490714438784
3900  ekin = 131.702008351583 |  erot = 140.526298783761 | edyn = 272.228307135344 | ebond = 40.6372158238637 | eexcv = 0.0191130281804888 | estk = -860.110154545645 | ehbond = -86.9992538986168 | exstk = -116.977394975447 | ecoaxstk = 0 | edh = 34.8018535715284 | epot = -988.628620996137 | etot = -716.400313860793
4000  ekin = 150.496716897681 |  erot = 128.948804642223 | edyn = 279.445521539904 | ebond = 44.7542022722109 | eexcv = 0 | estk = -855.432851735097 | ehbond = -97.5852170545772 | exstk = -118.9057019998 | ecoaxstk = 0 | edh = 35.2883438965185 | epot = -991.881224620744 | etot = -712.435703080841
4100  ekin = 130.801099620618 |  erot = 129.956511175115 | edyn = 260.757610795733 | ebond = 36.6141606469108 | eexcv = 0 | estk = -846.87273837828 | ehbond = -98.263766509302 | exstk = -122.506839165287 | ecoaxstk = 0 | edh = 35.8625555657013 | epot = -995.166627840258 | etot = -734.409017044525
4200  ekin = 119.116483924627 |  erot = 131.98721267832 | edyn = 251.103696602946 | ebond = 46.1482008375335 | eexcv = 0 | estk = -846.347886496624 | ehbond = -104.112753018901 | exstk = -119.857811271381 | ecoaxstk = 0 | edh = 36.2507180023203 | epot = -987.919531947052 | etot = -736.815835344106
4300  ekin = 129.889890989575 |  erot = 136.070260687013 | edyn = 265.960151676588 | ebond = 41.6509667940801 | eexcv = 0 | estk = -865.77807245994 | ehbond = -102.079292770015 | exstk = -118.485175262933 | ecoaxstk = 0 | edh = 35.9340277330367 | epot = -1008.75754596577 | etot = -742.797394289183
4400  ekin = 133.950145241846 |  erot = 116.020011353977 | edyn = 249.970156595824 | ebond = 51.6304871554983 | eexcv = 0 | estk = -858.261539418975 | ehbond = -98.939213741965 | exstk = -124.328081899806 | ecoaxstk = 0 | edh = 35.7929489892491 | epot = -994.105398915998 | etot = -744.135242320175
4500  ekin = 150.078701199182 |  erot = 121.935747355249 | edyn = 272.014448554431 | ebond = 45.350589845527 | eexcv = 0 | estk = -852.31758351152 | ehbond = -107.993908817272 | exstk = -129.274303130376 | ecoaxstk = 0 | edh = 35.405144522529 | epot = -1008.83006109111 | etot = -736.815612536681
4600  ekin = 130.717725022013 |  erot = 127.482395005462 | edyn = 258.200120027476 | ebond = 45.9831935995532 | eexcv = 0 | estk = -851.564873885537 | ehbond = -103.478476177972 | exstk = -131.059142201334 | ecoaxstk = 0 | edh = 34.7636476020873 | epot = -1005.3556510632 | etot = -747.155531035727
4700  ekin = 126.071646534654 |  erot = 137.472886580892 | edyn = 263.544533115546 | ebond = 46.9343191897127 | eexcv = 0 | estk = -844.632415195468 | ehbond = -94.5920978417927 | exstk = -123.021866918493 | ecoaxstk = 0 | edh = 34.4407202220772 | epot = -980.871340543964 | etot = -717.326807428418
4800  ekin = 141.697879313176 |  erot = 137.809346208403 | edyn = 279.507225521579 | ebond = 40.5666427660079 | eexcv = 0 | estk = -852.934980271772 | ehbond = -111.472294431238 | exstk = -130.857412747479 | ecoaxstk = 0 | edh = 34.7259413336525 | epot = -1019.97210335083 | etot = -740.464877829249
4900  ekin = 143.175277888598 |  erot = 142.183937333238 | edyn = 285.359215221836 | ebond = 47.5555644701042 | eexcv = 0 | estk = -840.236753245357 | ehbond = -113.788608931359 | exstk = -141.73201740864 | ecoaxstk = 0 | edh = 35.094641869368 | epot = -1013.10717324588 | etot = -727.747958024049
5000  ekin = 131.199305606968 |  erot = 144.284551083859 | edyn = 275.483856690826 | ebond = 42.4078060524801 | eexcv = 0 | estk = -846.707674567204 | ehbond = -121.349350645807 | exstk = -136.017057455543 | ecoaxstk = 0 | edh = 35.5914715460014 | epot = -1026.07480507007 | etot = -750.590948379245
5100  ekin = 120.485553564293 |  erot = 139.073500983385 | edyn = 259.559054547678 | ebond = 40.7398677585938 | eexcv = 0 | estk = -851.106112514515 | ehbond = -115.186961641543 | exstk = -129.800906566548 | ecoaxstk = 0 | edh = 35.9170469977589 | epot = -1019.43706596625 | etot = -759.878011418576
5200  ekin = 117.970582920272 |  erot = 125.714686204896 | edyn = 243.685269125167 | ebond = 36.5378860027219 | eexcv = 0 | estk = -841.491232977106 | ehbond = -107.131635391645 | exstk = -135.075033043307 | ecoaxstk = 0 | edh = 36.8382524927361 | epot = -1010.3217629166 | etot = -766.636493791433
5300  ekin = 123.82309108635 |  erot = 126.883187621884 | edyn = 250.706278708235 | ebond = 43.0879651866514 | eexcv = 0 | estk = -855.709246179605 | ehbond = -111.667667214933 | exstk = -122.549727767387 | ecoaxstk = 0 | edh = 37.6765958974226 | epot = -1009.16208007785 | etot = -758.455801369616
5400  ekin = 127.462373918674 |  erot = 130.741109799911 | edyn = 258.203483718585 | ebond = 40.6361458454673 | eexcv = 0 | estk = -859.42396458986 | ehbond = -107.366297857403 | exstk = -124.351815504873 | ecoaxstk = 0 | edh = 37.9673620464797 | epot = -1012.53857006019 | etot = -754.335086341603
5500  ekin = 124.792680899458 |  erot = 138.644616346959 | edyn = 263.437297246417 | ebond = 43.6423211892966 | eexcv = 0 | estk = -835.830549367611 | ehbond = -107.94479991068 | exstk = -122.008299340778 | ecoaxstk = 0 | edh = 36.0706821149094 | epot = -986.070645314863 | etot = -722.633348068446
5600  ekin = 144.224256097112 |  erot = 128.979307411618 | edyn = 273.20356350873 | ebond = 42.2893538055478 | eexcv = 0 | estk = -858.468464101363 | ehbond = -112.522871071121 | exstk = -117.966182388341 | ecoaxstk = 0 | edh = 35.3317725057501 | epot = -1011.33639124953 | etot = -738.132827740797
5700  ekin = 141.382195238413 |  erot = 146.175101944077 | edyn = 287.557297182489 | ebond = 49.4448060797302 | eexcv = 0 | estk = -863.411070102867 | ehbond = -116.681466684187 | exstk = -136.253022344652 | ecoaxstk = 0 | edh = 35.0831854045628 | epot = -1031.81756764741 | etot = -744.260270464924
5800  ekin = 139.595354993094 |  erot = 133.322795569942 | edyn = 272.918150563035 | ebond = 44.3034988384064 | eexcv = 0 | estk = -864.506187487985 | ehbond = -114.295240360085 | exstk = -123.907944168648 | ecoaxstk = 0 | edh = 34.5301784472169 | epot = -1023.8756947311 | etot = -750.95754416806
5900  ekin = 131.265214773661 |  erot = 140.916978209693 | edyn = 272.182192983355 | ebond = 38.8059751567951 | eexcv = 0 | estk = -849.563101636617 | ehbond = -118.428424346572 | exstk = -132.400564010749 | ecoaxstk = 0 | edh = 35.2894586499056 | epot = -1026.29665618724 | etot = -754.114463203882
6000  ekin = 132.358239758651 |  erot = 133.453095336902 | edyn = 265.811335095553 | ebond = 36.7892396263402 | eexcv = 0.0265478868548356 | estk = -843.964652360712 | ehbond = -116.162067338284 | exstk = -119.19885501073 | ecoaxstk = 0 | edh = 35.5968227713549 | epot = -1006.91296442518 | etot = -741.101629329622
6100  ekin = 139.386956559374 |  erot = 130.387019643138 | edyn = 269.773976202512 | ebond = 40.0445599825372 | eexcv = 0 | estk = -854.906410766239 | ehbond = -121.098040594599 | exstk = -119.445179078928 | ecoaxstk = 0 | edh = 35.089936118668 | epot = -1020.31513433856 | etot = -750.54115813605
6200  ekin = 121.974929070582 |  erot = 127.444579866317 | edyn = 249.419508936899 | ebond = 47.1502874725438 | eexcv = 0 | estk = -851.177109031858 | ehbond = -124.857096056848 | exstk = -124.331025238357 | ecoaxstk = 0 | edh = 35.619222266691 | epot = -1017.59572058783 | etot = -768.17621165093
6300  ekin = 124.166528131301 |  erot = 127.552104289311 | edyn = 251.718632420612 | ebond = 46.0976219805993 | eexcv = 0 | estk = -881.229136189323 | ehbond = -111.314778136009 | exstk = -119.215981091162 | ecoaxstk = 0 | edh = 35.9390668228266 | epot = -1029.72320661307 | etot = -778.004574192456
6400  ekin = 121.38501774602 |  erot = 127.416651115175 | edyn = 248.801668861196 | ebond = 46.1946443243042 | eexcv = 7.06967755875889e-05 | estk = -882.977537362206 | ehbond = -119.89516350257 | exstk = -111.186246677178 | ecoaxstk = 0 | edh = 36.2259470203255 | epot = -1031.63828550055 | etot = -782.836616639353
6500  ekin = 118.503505891507 |  erot = 137.229886985341 | edyn = 255.733392876848 | ebond = 38.9696870471836 | eexcv = 0 | estk = -863.390181403084 | ehbond = -120.75008610303 | exstk = -126.922389549982 | ecoaxstk = 0 | edh = 36.2158740952907 | epot = -1035.87709591362 | etot = -780.143703036773
6600  ekin = 134.237643512009 |  erot = 124.035934264108 | edyn = 258.273577776117 | ebond = 29.559850273601 | eexcv = 0 | estk = -850.429601911404 | ehbond = -128.622396906092 | exstk = -130.341034858723 | ecoaxstk = 0 | edh = 35.0559653824423 | epot = -1044.77721802018 | etot = -786.503640244059
6700  ekin = 134.897392892653 |  erot = 136.221683889804 | edyn = 271.119076782457 | ebond = 37.5255605931854 | eexcv = 0 | estk = -863.600228897385 | ehbond = -121.767347628734 | exstk = -126.069353702314 | ecoaxstk = 0 | edh = 35.1910056261218 | epot = -1038.72036400913 | etot = -767.601287226669
6800  ekin = 118.644887887754 |  erot = 144.608326585189 | edyn = 263.253214472943 | ebond = 36.2204923536768 | eexcv = 0 | estk = -847.741161116368 | ehbond = -119.346218063501 | exstk = -128.018147884023 | ecoaxstk = 0 | edh = 34.8523860117302 | epot = -1024.03264869849 | etot = -760.779434225543
6900  ekin = 128.460638396586 |  erot = 146.459321021155 | edyn = 274.919959417741 | ebond = 33.6228855288298 | eexcv = 0 | estk = -839.647539435244 | ehbond = -121.708574577441 | exstk = -127.345170228047 | ecoaxstk = 0 | edh = 35.3525208340214 | epot = -1019.72587787788 | etot = -744.805918460139
7000  ekin = 132.379131011278 |  erot = 133.77738184938 | edyn = 266.156512860658 | ebond = 46.6692120610037 | eexcv = 0.000537903091186441 | estk = -847.875854663316 | ehbond = -121.057200874843 | exstk = -134.824651150742 | ecoaxstk = 0 | edh = 35.140372776572 | epot = -1021.94758394823 | etot = -755.791071087577
7100  ekin = 135.927959603759 |  erot = 130.716086760523 | edyn = 266.644046364282 | ebond = 32.7356427172271 | eexcv = 0.761739258676088 | estk = -849.598350740318 | ehbond = -120.36321788606 | exstk = -127.329345327656 | ecoaxstk = 0 | edh = 34.315665180676 | epot = -1029.47786679745 | etot = -762.833820433172
7200  ekin = 130.230462404712 |  erot = 126.265365381839 | edyn = 256.495827786551 | ebond = 38.7390818412584 | eexcv = 0 | estk = -841.71673896084 | ehbond = -120.414168698234 | exstk = -140.088278668874 | ecoaxstk = 0 | edh = 34.076912577181 | epot = -1029.40319190951 | etot = -772.907364122958
7300  ekin = 127.847274693216 |  erot = 122.265156202359 | edyn = 250.112430895575 | ebond = 36.5333684237086 | eexcv = 0 | estk = -846.62575171529 | ehbond = -113.389620364308 | exstk = -141.867481773047 | ecoaxstk = 0 | edh = 34.5335068867919 | epot = -1030.81597854214 | etot = -780.703547646569
7400  ekin = 130.167195372527 |  erot = 126.780572848485 | edyn = 256.947768221011 | ebond = 47.436676219677 | eexcv = 0 | estk = -845.683299893216 | ehbond = -114.759319565777 | exstk = -149.302609297684 | ecoaxstk = 0 | edh = 34.8610565327643 | epot = -1027.44749600423 | etot = -770.499727783223
7500  ekin = 141.915296015823 |  erot = 128.028862511764 | edyn = 269.944158527587 | ebond = 37.7457461446934 | eexcv = 0 | estk = -844.667080577568 | ehbond = -115.273198020252 | exstk = -144.136497453187 | ecoaxstk = 0 | edh = 34.7994023969882 | epot = -1031.53162750932 | etot = -761.587468981737
7600  ekin = 139.226609880064 |  erot = 117.851050775068 | edyn = 257.077660655132 | ebond = 47.178357303664 | eexcv = 0 | estk = -855.099727038385 | ehbond = -111.832808741848 | exstk = -149.044044375998 | ecoaxstk = 0 | edh = 35.291037599521 | epot = -1033.50718525305 | etot = -776.429524597915
7700  ekin = 126.947524773357 |  erot = 139.768192902496 | edyn = 266.715717675853 | ebond = 38.105033010076 | eexcv = 0 | estk = -844.969542858086 | ehbond = -114.979202853573 | exstk = -134.729839153071 | ecoaxstk = 0 | edh = 35.5826392240714 | epot = -1020.99091263058 | etot = -754.275194954729
7800  ekin = 134.42673256222 |  erot = 129.377851392515 | edyn = 263.804583954735 | ebond = 41.9907030775821 | eexcv = 0 | estk = -852.616292110681 | ehbond = -119.365685584447 | exstk = -132.337305099833 | ecoaxstk = 0 | edh = 35.8674678376216 | epot = -1026.46111187976 | etot = -762.656527925022
7900  ekin = 142.021522755766 |  erot = 137.800774868342 | edyn = 279.822297624108 | ebond = 37.5497966743745 | eexcv = 0 | estk = -844.754880868825 | ehbond = -118.598269274121 | exstk = -137.676300762192 | ecoaxstk = 0 | edh = 35.6709155469453 | epot = -1027.80873868382 | etot = -747.98644105971
8000  ekin = 118.330439777169 |  erot = 154.623783019877 | edyn = 272.954222797046 | ebond = 36.6948172254982 | eexcv = 0 | estk = -850.760291784476 | ehbond = -111.931225115031 | exstk = -131.655408464399 | ecoaxstk = 0 | edh = 35.2043829938783 | epot = -1022.44772514453 | etot = -749.493502347483
8100  ekin = 130.27255563856 |  erot = 141.310013834058 | edyn = 271.582569472618 | ebond = 38.1208281924583 | eexcv = 0 | estk = -862.310746975037 | ehbond = -103.867611883346 | exstk = -132.068729173312 | ecoaxstk = 0 | edh = 36.0843755322745 | epot = -1024.04188430696 | etot = -752.459314834345
8200  ekin = 137.698146631145 |  erot = 128.874096603741 | edyn = 266.572243234886 | ebond = 39.6059394561514 | eexcv = 0 | estk = -862.937276377404 | ehbond = -109.339114185174 | exstk = -130.289423213074 | ecoaxstk = 0 | edh = 37.3210044865921 | epot = -1025.63886983291 | etot = -759.066626598024
8300  ekin = 127.240021584151 |  erot = 136.821003066371 | edyn = 264.061024650521 | ebond = 42.2476916700631 | eexcv = 0 | estk = -859.021276825457 | ehbond = -111.390442533601 | exstk = -115.475215519432 | ecoaxstk = 0 | edh = 37.7416145392796 | epot = -1005.89762866915 | etot = -741.836604018625
8400  ekin = 145.728021720165 |  erot = 147.853893585599 | edyn = 293.581915305764 | ebond = 48.0085021741218 | eexcv = 0 | estk = -865.38326719076 | ehbond = -115.92556960361 | exstk = -141.720826018025 | ecoaxstk = 0 | edh = 36.7919789336395 | epot = -1038.22918170463 | etot = -744.64726639887
8500  ekin = 116.669984026516 |  erot = 125.241902728651 | edyn = 241.911886755167 | ebond = 52.5535620118959 | eexcv = 0 | estk = -865.553679811522 | ehbond = -115.043436468597 | exstk = -137.109877216852 | ecoaxstk = 0 | edh = 36.3706183715394 | epot = -1028.78281311354 | etot = -786.870926358369
8600  ekin = 134.675552113795 |  erot = 133.864173727457 | edyn = 268.539725841253 | ebond = 43.4451501395726 | eexcv = 0 | estk = -855.620935708004 | ehbond = -124.813273315417 | exstk = -134.300963402044 | ecoaxstk = 0 | edh = 36.2048344476399 | epot = -1035.08518783825 | etot = -766.545461997
8700  ekin = 116.795640024533 |  erot = 144.968052914793 | edyn = 261.763692939326 | ebond = 38.0651451972022 | eexcv = 0 | estk = -837.747350959515 | ehbond = -127.055150131047 | exstk = -134.568459708801 | ecoaxstk = 0 | edh = 36.3691426886461 | epot = -1024.93667291351 | etot = -763.172979974189
8800  ekin = 143.108883797427 |  erot = 148.166236786569 | edyn = 291.275120583996 | ebond = 36.0967923841693 | eexcv = 0.479519684955168 | estk = -857.848065751509 | ehbond = -125.29142856865 | exstk = -130.385259542269 | ecoaxstk = 0 | edh = 37.0012369736489 | epot = -1039.94720481965 | etot = -748.672084235658
8900  ekin = 139.58606388588 |  erot = 125.677847716837 | edyn = 265.263911602716 | ebond = 42.2768162735157 | eexcv = 0 | estk = -853.054411346826 | ehbond = -122.91612735193 | exstk = -141.481659589602 | ecoaxstk = 0 | edh = 35.5448702041293 | epot = -1039.63051181071 | etot = -774.366600207997
9000  ekin = 132.165588915995 |  erot = 113.947002735972 | edyn = 246.112591651967 | ebond = 46.0266388249101 | eexcv = 0 | estk = -846.123856455813 | ehbond = -123.769657662202 | exstk = -136.106170051235 | ecoaxstk = 0 | edh = 35.2151573063174 | epot = -1024.75788803802 | etot = -778.645296386056
9100  ekin = 121.940789988432 |  erot = 151.393866835051 | edyn = 273.334656823482 | ebond = 41.7131448331263 | eexcv = 0 | estk = -855.169678982667 | ehbond = -117.959092798328 | exstk = -130.886307278466 | ecoaxstk = 0 | edh = 35.5767708226171 | epot = -1026.72516340372 | etot = -753.390506580236
9200  ekin = 136.871743813192 |  erot = 138.988354124067 | edyn = 275.860097937259 | ebond = 30.0763798018217 | eexcv = 0 | estk = -839.610720183678 | ehbond = -124.050764034299 | exstk = -144.237049898498 | ecoaxstk = 0 | edh = 35.5016035318197 | epot = -1042.32055078283 | etot = -766.460452845576
9300  ekin = 136.999385049334 |  erot = 126.554018528096 | edyn = 263.553403577429 | ebond = 40.9271202916062 | eexcv = 0 | estk = -837.421815770512 | ehbond = -126.086907627475 | exstk = -131.476565074446 | ecoaxstk = 0 | edh = 35.6701694478632 | epot = -1018.38799873296 | etot = -754.834595155535
9400  ekin = 145.301584561078 |  erot = 136.971786369162 | edyn = 282.27337093024 | ebond = 47.7578826917077 | eexcv = 0 | estk = -860.79257068479 | ehbond = -132.571550508442 | exstk = -136.9873678946 | ecoaxstk = 0 | edh = 36.11753235395 | epot = -1046.47607404217 | etot = -764.202703111934
9500  ekin = 139.594194288282 |  erot = 141.543561716381 | edyn = 281.137756004664 | ebond = 40.9844188802037 | eexcv = 0 | estk = -858.918198034058 | ehbond = -117.96573597779 | exstk = -138.405063385575 | ecoaxstk = 0 | edh = 35.5083605586583 | epot = -1038.79621795856 | etot = -757.658461953898
9600  ekin = 127.129545446312 |  erot = 132.274348818145 | edyn = 259.403894264457 | ebond = 58.1741986686106 | eexcv = 0 | estk = -855.935967774433 | ehbond = -119.70875463134 | exstk = -144.511363356961 | ecoaxstk = 0 | edh = 36.3709382372159 | epot = -1025.61094885691 | etot = -766.207054592451
9700  ekin = 133.89539852391 |  erot = 125.782321540606 | edyn = 259.677720064517 | ebond = 42.0882951438809 | eexcv = 0 | estk = -857.577215105522 | ehbond = -112.753198599128 | exstk = -139.984078266973 | ecoaxstk = 0 | edh = 36.9291290091873 | epot = -1031.29706781855 | etot = -771.619347754038
9800  ekin = 134.570030903898 |  erot = 138.096675070694 | edyn = 272.666705974592 | ebond = 44.2081729259413 | eexcv = 0 | estk = -846.215912593682 | ehbond = -122.572483922786 | exstk = -134.214326966218 | ecoaxstk = 0 | edh = 36.4882989717701 | epot = -1022.30625158498 | etot = -749.639545610383
9900  ekin = 135.897826631376 |  erot = 139.111602736948 | edyn = 275.009429368323 | ebond = 36.4346484393205 | eexcv = 0 | estk = -838.755897815348 | ehbond = -112.149247468339 | exstk = -133.920632667922 | ecoaxstk = 0 | edh = 37.1054930363021 | epot = -1011.28563647599 | etot = -736.276207107664
10000  ekin = 160.616731327999 |  erot = 132.62696384335 | edyn = 293.243695171349 | ebond = 37.5643216829664 | eexcv = 0 | estk = -826.056999381679 | ehbond = -131.560162150992 | exstk = -139.96189055727 | ecoaxstk = 0 | edh = 35.5253297630525 | epot = -1024.48940064392 | etot = -731.245705472572
10100  ekin = 154.930277066722 |  erot = 137.181122171119 | edyn = 292.111399237842 | ebond = 38.6567867466544 | eexcv = 0 | estk = -834.810510553172 | ehbond = -118.054669496443 | exstk = -141.498124329693 | ecoaxstk = 0 | edh = 34.9216222486414 | epot = -1020.78489538401 | etot = -728.673496146171
10200  ekin = 134.437338385269 |  erot = 137.374920221131 | edyn = 271.8122586064 | ebond = 46.7424564214616 | eexcv = 0 | estk = -856.240775427332 | ehbond = -120.889223987491 | exstk = -124.373358813268 | ecoaxstk = 0 | edh = 35.0417279793508 | epot = -1019.71917382728 | etot = -747.906915220878
10300  ekin = 133.272887937628 |  erot = 140.52477597274 | edyn = 273.797663910367 | ebond = 41.0079744459397 | eexcv = 0 | estk = -868.525412104705 | ehbond = -137.680877609445 | exstk = -125.768040638119 | ecoaxstk = 0 | edh = 34.5898389618035 | epot = -1056.37651694453 | etot = -782.578853034158
10400  ekin = 133.138472092856 |  erot = 123.457038256587 | edyn = 256.595510349443 | ebond = 37.9052849976744 | eexcv = 0 | estk = -861.552208769263 | ehbond = -135.051807072346 | exstk = -119.962776511305 | ecoaxstk = 0 | edh = 34.8345528834818 | epot = -1043.82695447176 | etot = -787.231444122315
10500  ekin = 153.094144861361 |  erot = 138.20571939872 | edyn = 291.299864260081 | ebond = 40.5448294219721 | eexcv = 0 | estk = -841.363149209808 | ehbond = -145.779249896945 | exstk = -120.044641971741 | ecoaxstk = 0 | edh = 35.0276556855466 | epot = -1031.61455597098 | etot = -740.314691710894
10600  ekin = 155.94255377909 |  erot = 123.193835611963 | edyn = 279.136389391053 | ebond = 45.3683952236301 | eexcv = 0 | estk = -853.725858908877 | ehbond = -138.241608531004 | exstk = -128.490606614305 | ecoaxstk = 0 | edh = 34.3810618409652 | epot = -1040.70861698959 | etot = -761.572227598539
10700  ekin = 128.320162425836 |  erot = 136.553468055161 | edyn = 264.873630480997 | ebond = 42.9408902132007 | eexcv = 0 | estk = -835.995978259178 | ehbond = -146.008781298664 | exstk = -130.674851541087 | ecoaxstk = 0 | edh = 34.3387692932314 | epot = -1035.3999515925 | etot = -770.5263211115
10800  ekin = 106.656334457827 |  erot = 129.679221759772 | edyn = 236.335556217599 | ebond = 39.4416909932249 | eexcv = 0 | estk = -830.508756732331 | ehbond = -133.053762385539 | exstk = -127.750584278413 | ecoaxstk = 0 | edh = 34.1154614795933 | epot = -1017.75595092347 | etot = -781.420394705866
10900  ekin = 131.59646903872 |  erot = 144.451742447106 | edyn = 276.048211485826 | ebond = 48.0964674045335 | eexcv = 0 | estk = -839.112159766717 | ehbond = -143.938231825006 | exstk = -134.874913013015 | ecoaxstk = 0 | edh = 34.0281796316349 | epot = -1035.80065756857 | etot = -759.752446082745
11000  ekin = 125.193382371238 |  erot = 135.745244478265 | edyn = 260.938626849503 | ebond = 40.5238866582887 | eexcv = 0 | estk = -836.293528711884 | ehbond = -153.466280449079 | exstk = -130.742305669608 | ecoaxstk = 0 | edh = 34.7573387114408 | epot = -1045.22088946084 | etot = -784.282262611339
11100  ekin = 122.811674723965 |  erot = 129.752014728216 | edyn = 252.563689452181 | ebond = 51.6883008880166 | eexcv = 0 | estk = -855.083766384313 | ehbond = -148.320316266462 | exstk = -122.226444114784 | ecoaxstk = 0 | edh = 35.253953962811 | epot = -1038.68827191473 | etot = -786.124582462551
11200  ekin = 129.630140001095 |  erot = 120.700709438151 | edyn = 250.330849439246 | ebond = 37.7659240840152 | eexcv = 0 | estk = -855.659624974987 | ehbond = -149.129708376825 | exstk = -130.265981641247 | ecoaxstk = 0 | edh = 34.9815940944749 | epot = -1062.30779681457 | etot = -811.976947375323
11300  ekin = 122.982017126898 |  erot = 126.790810147515 | edyn = 249.772827274413 | ebond = 47.5837761798205 | eexcv = 0 | estk = -857.942721323129 | ehbond = -148.39667967682 | exstk = -124.976169821667 | ecoaxstk = 0 | edh = 34.5948876641382 | epot = -1049.13690697766 | etot = -799.364079703244
11400  ekin = 124.806115332797 |  erot = 136.086786637784 | edyn = 260.89290197058 | ebond = 42.3704553947983 | eexcv = 0 | estk = -843.695654548528 | ehbond = -149.327330063308 | exstk = -117.743643052646 | ecoaxstk = 0 | edh = 34.961942881705 | epot = -1033.43422938798 | etot = -772.541327417399
11500  ekin = 125.64573268956 |  erot = 141.866580891703 | edyn = 267.512313581263 | ebond = 44.382526197279 | eexcv = 0 | estk = -822.856280865264 | ehbond = -162.930068680129 | exstk = -125.489128690786 | ecoaxstk = 0 | edh = 34.3641036338599 | epot = -1032.52884840504 | etot = -765.016534823778
11600  ekin = 129.884698119843 |  erot = 143.041535735244 | edyn = 272.926233855087 | ebond = 46.1689483979961 | eexcv = 0 | estk = -837.861997720391 | ehbond = -154.567857229462 | exstk = -127.893144777458 | ecoaxstk = 0 | edh = 34.2171063915676 | epot = -1039.93694493775 | etot = -767.010711082661
11700  ekin = 143.832029459271 |  erot = 136.270244350893 | edyn = 280.102273810164 | ebond = 36.8376957046189 | eexcv = 0 | estk = -828.957599470403 | ehbond = -157.584010507641 | exstk = -122.688680681938 | ecoaxstk = 0 | edh = 33.8725660394767 | epot = -1038.52002891589 | etot = -758.417755105722
11800  ekin = 146.139396461085 |  erot = 124.425006119691 | edyn = 270.564402580776 | ebond = 41.7320100329515 | eexcv = 0 | estk = -832.652213977643 | ehbond = -158.251090361645 | exstk = -129.181475020174 | ecoaxstk = 0 | edh = 33.7215109063603 | epot = -1044.63125842015 | etot = -774.066855839373
11900  ekin = 134.866155400302 |  erot = 125.553252779505 | edyn = 260.419408179807 | ebond = 41.7195217238125 | eexcv = 0 | estk = -844.4860336912 | ehbond = -145.890713999765 | exstk = -122.285651024037 | ecoaxstk = 0 | edh = 34.1919407250502 | epot = -1036.75093626614 | etot = -776.331528086332
12000  ekin = 117.695797612595 |  erot = 129.404571968085 | edyn = 247.10036958068 | ebond = 32.9391206900444 | eexcv = 0 | estk = -839.621461351748 | ehbond = -153.195614149832 | exstk = -122.246553690801 | ecoaxstk = 0 | edh = 33.8664395983579 | epot = -1048.25806890398 | etot = -801.157699323299
12100  ekin = 129.047156968459 |  erot = 116.240112498138 | edyn = 245.287269466598 | ebond = 47.9348145181031 | eexcv = 0 | estk = -841.795543596157 | ehbond = -129.105146087307 | exstk = -131.144168256714 | ecoaxstk = 0 | edh = 33.8543455357905 | epot = -1020.25569788628 | etot = -774.968428419687
12200  ekin = 148.671302346397 |  erot = 125.822764711442 | edyn = 274.49406705784 | ebond = 49.8074317634868 | eexcv = 0 | estk = -835.971439409017 | ehbond = -144.180318316666 | exstk = -134.534515611922 | ecoaxstk = 0 | edh = 33.9930903657166 | epot = -1030.8857512084 | etot = -756.391684150562
12300  ekin = 133.242015441193 |  erot = 134.811024712351 | edyn = 268.053040153544 | ebond = 55.152326677627 | eexcv = 0 | estk = -824.508347581188 | ehbond = -150.180190346169 | exstk = -133.874915331129 | ecoaxstk = 0 | edh = 33.8991331613375 | epot = -1019.51199341952 | etot = -751.458953265977
12400  ekin = 137.120720621214 |  erot = 129.632835350085 | edyn = 266.753555971298 | ebond = 41.2051062772334 | eexcv = 0 | estk = -818.451341451891 | ehbond = -157.840130835897 | exstk = -126.793563934168 | ecoaxstk = 0 | edh = 33.709352688822 | epot = -1028.1705772559 | etot = -761.417021284602
12500  ekin = 152.757697421357 |  erot = 137.588204877286 | edyn = 290.345902298643 | ebond = 46.4882486250574 | eexcv = 0 | estk = -855.361188847887 | ehbond = -160.195484150466 | exstk = -137.961624635189 | ecoaxstk = 0 | edh = 33.3345875540473 | epot = -1073.69546145444 | etot = -783.349559155795
12600  ekin = 118.196704672348 |  erot = 147.886666461754 | edyn = 266.083371134102 | ebond = 42.48502735452 | eexcv = 0 | estk = -821.417046121444 | ehbond = -175.101975136579 | exstk = -132.123549404132 | ecoaxstk = 0 | edh = 32.6189688136997 | epot = -1053.53857449394 | etot = -787.455203359834
12700  ekin = 124.522171133216 |  erot = 116.11481065527 | edyn = 240.636981788486 | ebond = 33.8343353988327 | eexcv = 0 | estk = -822.958783605413 | ehbond = -180.567543672829 | exstk = -126.149836373489 | ecoaxstk = 0 | edh = 32.4619698525675 | epot = -1063.37985840033 | etot = -822.742876611845
12800  ekin = 120.941310543633 |  erot = 129.589968581944 | edyn = 250.531279125577 | ebond = 45.4713530868394 | eexcv = 0 | estk = -827.064132276451 | ehbond = -163.396959270192 | exstk = -127.749830792667 | ecoaxstk = 0 | edh = 32.2029005219581 | epot = -1040.53666873051 | etot = -790.005389604936
12900  ekin = 114.961620346111 |  erot = 130.979443128373 | edyn = 245.941063474484 | ebond = 43.9407935299849 | eexcv = 0.0904625972025043 | estk = -823.455013593976 | ehbond = -159.668590791105 | exstk = -126.55327898084 | ecoaxstk = 0 | edh = 32.4016504698293 | epot = -1033.2439767689 | etot = -787.302913294421
13000  ekin = 141.648670649104 |  erot = 148.918768273444 | edyn = 290.567438922548 | ebond = 38.5106633759427 | eexcv = 0 | estk = -815.365807882724 | ehbond = -160.357053384391 | exstk = -136.900701072658 | ecoaxstk = 0 | edh = 32.7482379233967 | epot = -1041.36466104043 | etot = -750.797222117885
13100  ekin = 141.89417614818 |  erot = 132.349864964663 | edyn = 274.244041112843 | ebond = 43.4127004383655 | eexcv = 0 | estk = -841.677268495577 | ehbond = -163.413706375332 | exstk = -131.436071356152 | ecoaxstk = 0 | edh = 33.4748459366836 | epot = -1059.63949985201 | etot = -785.39545873917
13200  ekin = 127.755777876522 |  erot = 127.619378362968 | edyn = 255.37515623949 | ebond = 45.4318732506454 | eexcv = 0 | estk = -841.629382371018 | ehbond = -158.207881965685 | exstk = -130.253894045973 | ecoaxstk = 0 | edh = 33.85982067027 | epot = -1050.79946446176 | etot = -795.42430822227
13300  ekin = 128.141209584926 |  erot = 117.381592591507 | edyn = 245.522802176433 | ebond = 46.7294167073407 | eexcv = 0 | estk = -842.288412793949 | ehbond = -156.657490068968 | exstk = -122.328659866793 | ecoaxstk = 0 | edh = 33.2500528867464 | epot = -1041.29509313562 | etot = -795.772290959189
13400  ekin = 130.117106937145 |  erot = 116.647276276079 | edyn = 246.764383213224 | ebond = 48.8042136632807 | eexcv = 0.0777034798474561 | estk = -832.845083094995 | ehbond = -168.305829097674 | exstk = -128.210897793056 | ecoaxstk = 0 | edh = 32.9280470237072 | epot = -1047.55184581889 | etot = -800.787462605666
13500  ekin = 135.548644318078 |  erot = 132.307175857996 | edyn = 267.855820176074 | ebond = 38.7184402297691 | eexcv = 0 | estk = -851.074147721079 | ehbond = -155.879590021212 | exstk = -129.136907494653 | ecoaxstk = 0 | edh = 33.1458096526248 | epot = -1064.22639535455 | etot = -796.370575178476
13600  ekin = 122.78962744875 |  erot = 133.911664967012 | edyn = 256.701292415762 | ebond = 42.151427059852 | eexcv = 0.00295385774919574 | estk = -824.909904714875 | ehbond = -158.627260759824 | exstk = -121.914685337276 | ecoaxstk = 0 | edh = 33.3268354745771 | epot = -1029.9706344198 | etot = -773.269342004034
13700  ekin = 133.937611157214 |  erot = 137.40560065568 | edyn = 271.343211812894 | ebond = 40.2769912946987 | eexcv = 0 | estk = -838.692257477282 | ehbond = -164.603039108536 | exstk = -126.123509347018 | ecoaxstk = 0 | edh = 33.3348333685426 | epot = -1055.80698126959 | etot = -784.463769456701
13800  ekin = 133.254117475518 |  erot = 117.834519309811 | edyn = 251.088636785328 | ebond = 40.7625297324 | eexcv = 0.0348922439667887 | estk = -831.195048206207 | ehbond = -159.347522896948 | exstk = -127.730898135391 | ecoaxstk = 0 | edh = 33.5534038329989 | epot = -1043.92264342918 | etot = -792.834006643852
13900  ekin = 148.711252662239 |  erot = 124.954962199351 | edyn = 273.66621486159 | ebond = 45.293026818432 | eexcv = 0 | estk = -851.557286491348 | ehbond = -158.181082764611 | exstk = -125.974750023236 | ecoaxstk = 0 | edh = 34.5684935087494 | epot = -1055.85159895201 | etot = -782.185384090423
14000  ekin = 138.154323048409 |  erot = 118.594956670826 | edyn = 256.749279719235 | ebond = 33.4495325116273 | eexcv = 0 | estk = -857.944112797206 | ehbond = -144.863666503909 | exstk = -115.296641830327 | ecoaxstk = 0 | edh = 35.7333035472475 | epot = -1048.92158507257 | etot = -792.172305353332
14100  ekin = 137.322466455458 |  erot = 146.562845554304 | edyn = 283.885312009762 | ebond = 46.105744190822 | eexcv = 0 | estk = -848.503553220992 | ehbond = -162.842882581743 | exstk = -118.029247892142 | ecoaxstk = 0 | edh = 35.5029645636495 | epot = -1047.7669749404 | etot = -763.881662930643
14200  ekin = 133.660518002168 |  erot = 137.788216232841 | edyn = 271.448734235009 | ebond = 36.444127182658 | eexcv = 0 | estk = -821.021082923086 | ehbond = -158.783708998692 | exstk = -124.241634928866 | ecoaxstk = 0 | edh = 35.3073980666732 | epot = -1032.29490160131 | etot = -760.846167366303
14300  ekin = 127.133759358367 |  erot = 124.73908213088 | edyn = 251.872841489246 | ebond = 39.3123631453109 | eexcv = 0.829476620409368 | estk = -833.096771082961 | ehbond = -167.453023635416 | exstk = -120.929942091753 | ecoaxstk = 0 | edh = 35.4354493455875 | epot = -1045.90244769882 | etot = -794.029606209575
14400  ekin = 150.808134689803 |  erot = 128.021793067916 | edyn = 278.829927757719 | ebond = 45.5494523610932 | eexcv = 0 | estk = -853.408219774773 | ehbond = -158.60719128028 | exstk = -117.64583474409 | ecoaxstk = 0 | edh = 35.1020094824494 | epot = -1049.0097839556 | etot = -770.179856197881
14500  ekin = 126.17559732242 |  erot = 132.96533777128 | edyn = 259.1409350937 | ebond = 41.3370954502169 | eexcv = 0 | estk = -843.585634866889 | ehbond = -146.456457007177 | exstk = -125.248209563907 | ecoaxstk = 0 | edh = 34.7386173255286 | epot = -1039.21458866223 | etot = -780.073653568528
14600  ekin = 128.157269100853 |  erot = 115.024531685044 | edyn = 243.181800785897 | ebond = 41.1169075598893 | eexcv = 0 | estk = -832.021840992676 | ehbond = -148.343452500673 | exstk = -114.712245538397 | ecoaxstk = 0 | edh = 35.9592272855539 | epot = -1018.0014041863 | etot = -774.819603400405
14700  ekin = 125.953439455857 |  erot = 133.842310242195 | edyn = 259.795749698052 | ebond = 42.6075028899565 | eexcv = 0 | estk = -818.089283393713 | ehbond = -150.641090118776 | exstk = -120.829459074227 | ecoaxstk = 0 | edh = 35.3344273571096 | epot = -1011.61790233965 | etot = -751.822152641598
14800  ekin = 128.234870085986 |  erot = 138.859069173725 | edyn = 267.093939259711 | ebond = 45.5222296706761 | eexcv = 0 | estk = -832.52829607054 | ehbond = -146.439525357639 | exstk = -125.014891895093 | ecoaxstk = 0 | edh = 35.3588663597847 | epot = -1023.10161729281 | etot = -756.0076780331
14900  ekin = 135.08974481986 |  erot = 143.307354662688 | edyn = 278.397099482548 | ebond = 45.8652634087282 | eexcv = 0.904127894572487 | estk = -841.335474284194 | ehbond = -138.372748049128 | exstk = -117.266737632211 | ecoaxstk = 0 | edh = 35.4451599074146 | epot = -1014.76040875482 | etot = -736.363309272269
15000  ekin = 161.674529658008 |  erot = 131.425179859772 | edyn = 293.099709517781 | ebond = 36.7360596557844 | eexcv = 0 | estk = -838.768073973982 | ehbond = -151.859112877573 | exstk = -114.825226096618 | ecoaxstk = 0 | edh = 35.5614670827522 | epot = -1033.15488620964 | etot = -740.055176691855
15100  ekin = 129.122662528191 |  erot = 121.115053465526 | edyn = 250.237715993716 | ebond = 44.709984812054 | eexcv = 0 | estk = -829.662285492298 | ehbond = -153.119343772703 | exstk = -110.947923585813 | ecoaxstk = 0 | edh = 36.670195486689 | epot = -1012.34937255207 | etot = -762.111656558355
15200  ekin = 117.484271069163 |  erot = 126.263137781819 | edyn = 243.747408850982 | ebond = 45.9679621185717 | eexcv = 0 | estk = -840.292429807813 | ehbond = -144.786082280398 | exstk = -109.956015010832 | ecoaxstk = 0 | edh = 37.1936411760914 | epot = -1011.87292380438 | etot = -768.125514953398
15300  ekin = 127.171319635276 |  erot = 135.597939823439 | edyn = 262.769259458714 | ebond = 45.3264435701612 | eexcv = 0 | estk = -845.614632228784 | ehbond = -154.869514504554 | exstk = -100.074492017623 | ecoaxstk = 0 | edh = 37.9355504058493 | epot = -1017.29664477495 | etot = -754.527385316237
15400  ekin = 140.750487856475 |  erot = 146.098422535746 | edyn = 286.848910392221 | ebond = 37.4945171882227 | eexcv = 0.0189895238374495 | estk = -850.035074352258 | ehbond = -153.058963206477 | exstk = -117.482912954003 | ecoaxstk = 0 | edh = 37.6964144819946 | epot = -1045.36702931868 | etot = -758.518118926463
15500  ekin = 124.535653588743 |  erot = 131.102091524607 | edyn = 255.63774511335 | ebond = 44.4487239540702 | eexcv = 0 | estk = -853.882802808236 | ehbond = -151.317403223296 | exstk = -98.8549118833434 | ecoaxstk = 0 | edh = 37.7504718069377 | epot = -1021.85592215387 | etot = -766.218177040517
15600  ekin = 141.85197470649 |  erot = 131.662134948717 | edyn = 273.514109655207 | ebond = 58.3247478887343 | eexcv = 0 | estk = -857.825696245607 | ehbond = -155.64764102315 | exstk = -100.476097193879 | ecoaxstk = 0 | edh = 37.6636130271241 | epot = -1017.96107354678 | etot = -744.446963891571
15700  ekin = 130.237448495111 |  erot = 118.863155585452 | edyn = 249.100604080563 | ebond = 46.2005074147099 | eexcv = 0 | estk = -851.466780380888 | ehbond = -161.982391541776 | exstk = -109.248963701085 | ecoaxstk = 0 | edh = 37.2599560145742 | epot = -1039.23767219446 | etot = -790.137068113901
15800  ekin = 134.895261108336 |  erot = 137.540881423672 | edyn = 272.436142532008 | ebond = 41.6692035276121 | eexcv = 0 | estk = -867.590067639542 | ehbond = -169.779598467875 | exstk = -98.4410051465815 | ecoaxstk = 0 | edh = 36.4815119245664 | epot = -1057.65995580182 | etot = -785.223813269811
15900  ekin = 133.748095820546 |  erot = 142.693481271385 | edyn = 276.441577091931 | ebond = 38.53471632161 | eexcv = 0 | estk = -867.124459640237 | ehbond = -150.301077340668 | exstk = -112.160496734997 | ecoaxstk = 0 | edh = 35.1910366753803 | epot = -1055.86028071891 | etot = -779.418703626981
16000  ekin = 131.549868956944 |  erot = 134.232157039391 | edyn = 265.782025996335 | ebond = 42.4843982123067 | eexcv = 0 | estk = -842.014119829649 | ehbond = -155.423063119941 | exstk = -118.867594253008 | ecoaxstk = 0 | edh = 35.0304184653628 | epot = -1038.78996052493 | etot = -773.007934528594
16100  ekin = 134.31175550285 |  erot = 131.510969121773 | edyn = 265.822724624623 | ebond = 42.4619307979182 | eexcv = 0 | estk = -855.739466031303 | ehbond = -148.160530011786 | exstk = -117.581688847038 | ecoaxstk = 0 | edh = 35.6961222920182 | epot = -1043.32363180019 | etot = -777.500907175567
16200  ekin = 141.133228212601 |  erot = 143.690831385875 | edyn = 284.824059598477 | ebond = 43.709631362824 | eexcv = 0.141162314310114 | estk = -864.6849826057 | ehbond = -150.341753321623 | exstk = -116.328190244352 | ecoaxstk = 0 | edh = 35.0713332860206 | epot = -1052.43279920852 | etot = -767.608739610044
16300  ekin = 127.969704760807 |  erot = 147.483948136066 | edyn = 275.453652896873 | ebond = 34.0044144728838 | eexcv = 0 | estk = -842.018792631793 | ehbond = -156.754548845804 | exstk = -103.85963203537 | ecoaxstk = 0 | edh = 35.194576973646 | epot = -1033.43398206644 | etot = -757.980329169564
16400  ekin = 131.862733245293 |  erot = 135.401369376909 | edyn = 267.264102622202 | ebond = 42.0071324304464 | eexcv = 0 | estk = -849.365784179575 | ehbond = -134.809045636791 | exstk = -120.773675507425 | ecoaxstk = 0 | edh = 35.2772997317035 | epot = -1027.66407316164 | etot = -760.39997053944
16500  ekin = 142.264203685626 |  erot = 140.251257797569 | edyn = 282.515461483195 | ebond = 50.7406610931261 | eexcv = 0 | estk = -840.272135071424 | ehbond = -142.934837058213 | exstk = -120.517248479707 | ecoaxstk = 0 | edh = 35.2946440372029 | epot = -1017.68891547901 | etot = -735.17345399582
16600  ekin = 139.362952280699 |  erot = 143.428064529385 | edyn = 282.791016810084 | ebond = 49.2870527704486 | eexcv = 0 | estk = -865.091100186897 | ehbond = -143.742854316931 | exstk = -111.215651705742 | ecoaxstk = 0 | edh = 34.9297592532177 | epot = -1035.8327941859 | etot = -753.04177737582
16700  ekin = 140.768329619118 |  erot = 128.732455761205 | edyn = 269.500785380323 | ebond = 40.9602756051405 | eexcv = 0 | estk = -849.818199866373 | ehbond = -138.24569554199 | exstk = -123.59085654247 | ecoaxstk = 0 | edh = 34.6700847697283 | epot = -1036.02439157597 | etot = -766.523606195642
16800  ekin = 136.166972816256 |  erot = 133.183113814107 | edyn = 269.350086630364 | ebond = 43.9127914795518 | eexcv = 0 | estk = -846.18119971322 | ehbond = -157.829240057816 | exstk = -119.16169033274 | ecoaxstk = 0 | edh = 35.1866957951017 | epot = -1044.07264282912 | etot = -774.722556198758
16900  ekin = 151.599593585894 |  erot = 135.415627560097 | edyn = 287.015221145992 | ebond = 36.7900733530421 | eexcv = 0 | estk = -840.486302076801 | ehbond = -166.557257219685 | exstk = -110.614750389487 | ecoaxstk = 0 | edh = 35.5254908575702 | epot = -1045.34274547536 | etot = -758.327524329369
17000  ekin = 152.275241521511 |  erot = 140.2374891148 | edyn = 292.512730636311 | ebond = 36.2490647083797 | eexcv = 0 | estk = -838.868102081242 | ehbond = -157.480095434055 | exstk = -118.372650682505 | ecoaxstk = 0 | edh = 35.2051102072921 | epot = -1043.26667328213 | etot = -750.75394264582
17100  ekin = 138.21216107044 |  erot = 140.779271278151 | edyn = 278.991432348591 | ebond = 43.3792225415156 | eexcv = 0 | estk = -826.734101445468 | ehbond = -155.19107332221 | exstk = -121.750820630992 | ecoaxstk = 0 | edh = 34.6982066500459 | epot = -1025.59856620711 | etot = -746.607133858518
17200  ekin = 148.214871613626 |  erot = 133.773338980646 | edyn = 281.988210594272 | ebond = 40.6345922930009 | eexcv = 0 | estk = -842.184586246616 | ehbond = -155.818801987857 | exstk = -128.599993393162 | ecoaxstk = 0 | edh = 34.7462810497509 | epot = -1051.22250828488 | etot = -769.23429769061
17300  ekin = 122.898460786354 |  erot = 132.358512778066 | edyn = 255.256973564421 | ebond = 40.336136679567 | eexcv = 0.346748576039936 | estk = -852.116740277677 | ehbond = -155.645618340558 | exstk = -124.969531658899 | ecoaxstk = 0 | edh = 34.7943654568536 | epot = -1057.25463956467 | etot = -801.997666000253
17400  ekin = 136.915832184017 |  erot = 131.956025261938 | edyn = 268.871857445955 | ebond = 39.7043756413423 | eexcv = 0 | estk = -841.542696153968 | ehbond = -156.447761243107 | exstk = -128.456343704264 | ecoaxstk = 0 | edh = 35.3470975047703 | epot = -1051.39532795523 | etot = -782.523470509272
17500  ekin = 141.276100102907 |  erot = 129.242162575407 | edyn = 270.518262678314 | ebond = 33.529273980156 | eexcv = 0 | estk = -839.870704833912 | ehbond = -146.159326524788 | exstk = -126.712303007346 | ecoaxstk = 0 | edh = 35.7325523321181 | epot = -1043.48050805377 | etot = -772.962245375458
17600  ekin = 148.918934412014 |  erot = 126.978228487929 | edyn = 275.897162899943 | ebond = 43.7099843162876 | eexcv = 0 | estk = -860.711073751313 | ehbond = -152.543560723592 | exstk = -126.660013265485 | ecoaxstk = 0 | edh = 35.4218049426141 | epot = -1060.78285848149 | etot = -784.885695581545
17700  ekin = 148.592435085929 |  erot = 140.17595731182 | edyn = 288.76839239775 | ebond = 39.176540028824 | eexcv = 0 | estk = -853.739237732609 | ehbond = -168.237518453119 | exstk = -120.775875915045 | ecoaxstk = 0 | edh = 35.8180650008238 | epot = -1067.75802707113 | etot = -778.989634673376
17800  ekin = 132.433734109907 |  erot = 131.066619330685 | edyn = 263.500353440592 | ebond = 32.9314936425828 | eexcv = 0 | estk = -840.232192823618 | ehbond = -157.397556909974 | exstk = -122.546995240604 | ecoaxstk = 0 | edh = 36.4565814176311 | epot = -1050.78866991398 | etot = -787.28831647339
17900  ekin = 133.987385886275 |  erot = 139.480816997597 | edyn = 273.468202883872 | ebond = 39.5545524253926 | eexcv = 0 | estk = -850.842684930828 | ehbond = -170.058060846494 | exstk = -128.960661703143 | ecoaxstk = 0 | edh = 35.8374669428193 | epot = -1074.46938811225 | etot = -801.001185228381
18000  ekin = 141.264711024889 |  erot = 133.320507285768 | edyn = 274.585218310657 | ebond = 38.8647618446789 | eexcv = 0 | estk = -850.640371914635 | ehbond = -166.650281684744 | exstk = -136.405944253961 | ecoaxstk = 0 | edh = 35.3069347422496 | epot = -1079.52490126641 | etot = -804.939682955754
18100  ekin = 110.555892130762 |  erot = 122.605579935913 | edyn = 233.161472066675 | ebond = 48.1815746999184 | eexcv = 0 | estk = -815.058748570217 | ehbond = -177.831594487009 | exstk = -127.382191423962 | ecoaxstk = 0 | edh = 34.1139775539921 | epot = -1037.97698222728 | etot = -804.815510160603
18200  ekin = 141.818314038432 |  erot = 127.297567680044 | edyn = 269.115881718476 | ebond = 42.9945076519814 | eexcv = 0 | estk = -847.03831449534 | ehbond = -167.054984724751 | exstk = -133.50935879438 | ecoaxstk = 0 | edh = 34.333626666947 | epot = -1070.27452369554 | etot = -801.158641977067
18300  ekin = 117.666287423197 |  erot = 129.55786924024 | edyn = 247.224156663437 | ebond = 38.0138024688555 | eexcv = 0 | estk = -850.468230083861 | ehbond = -152.262160673854 | exstk = -123.574248147542 | ecoaxstk = 0 | edh = 34.9246042344509 | epot = -1053.36623220195 | etot = -806.142075538515
18400  ekin = 141.854513514444 |  erot = 119.193381794327 | edyn = 261.047895308771 | ebond = 35.5022541656098 | eexcv = 0 | estk = -837.433176065658 | ehbond = -160.435820418224 | exstk = -129.989781444932 | ecoaxstk = 0 | edh = 34.8255100798931 | epot = -1057.53101368331 | etot = -796.483118374539
18500  ekin = 111.331430857065 |  erot = 131.661379097891 | edyn = 242.992809954956 | ebond = 39.8537261608555 | eexcv = 0 | estk = -839.821445951758 | ehbond = -171.187965258395 | exstk = -116.692364986908 | ecoaxstk = 0 | edh = 34.8685174738349 | epot = -1052.97953256237 | etot = -809.986722607414
18600  ekin = 133.511708591182 |  erot = 134.962923324336 | edyn = 268.474631915518 | ebond = 39.5488879484971 | eexcv = 0 | estk = -847.785708024433 | ehbond = -161.554789436458 | exstk = -128.159610701554 | ecoaxstk = 0 | edh = 34.791338624095 | epot = -1063.15988158985 | etot = -794.685249674335
18700  ekin = 138.551598136891 |  erot = 122.533098940456 | edyn = 261.084697077347 | ebond = 42.8073927944975 | eexcv = 0 | estk = -852.887762503602 | ehbond = -156.882789745867 | exstk = -127.183326024709 | ecoaxstk = 0 | edh = 35.4122908087428 | epot = -1058.73419467094 | etot = -797.64949759359
18800  ekin = 135.845975237079 |  erot = 124.177944261446 | edyn = 260.023919498524 | ebond = 42.3965544453931 | eexcv = 0 | estk = -848.478194846402 | ehbond = -161.746063854504 | exstk = -117.403061622642 | ecoaxstk = 0 | edh = 34.7202182036108 | epot = -1050.51054767454 | etot = -790.48662817602
18900  ekin = 138.069549639969 |  erot = 140.662880133352 | edyn = 278.732429773321 | ebond = 48.8791805169586 | eexcv = 0 | estk = -838.490473088275 | ehbond = -171.119376122348 | exstk = -114.5428527026 | ecoaxstk = 0 | edh = 34.753489498645 | epot = -1040.52003189762 | etot = -761.787602124298
19000  ekin = 153.846767402805 |  erot = 141.559729000805 | edyn = 295.40649640361 | ebond = 48.1237957114571 | eexcv = 0 | estk = -842.149025287013 | ehbond = -150.016152785227 | exstk = -126.297000012697 | ecoaxstk = 0 | edh = 35.0854224629577 | epot = -1035.25295991052 | etot = -739.846463506912
19100  ekin = 137.334992828301 |  erot = 127.711895959281 | edyn = 265.046888787582 | ebond = 44.1668120248957 | eexcv = 0 | estk = -826.839640496087 | ehbond = -163.202204135062 | exstk = -113.073911052042 | ecoaxstk = 0 | edh = 36.0627874498761 | epot = -1022.88615620842 | etot = -757.839267420837
19200  ekin = 134.765032169174 |  erot = 120.211735619634 | edyn = 254.976767788808 | ebond = 42.7339886915884 | eexcv = 0 | estk = -836.865864467104 | ehbond = -154.116690668599 | exstk = -107.551542159838 | ecoaxstk = 0 | edh = 36.3468488915811 | epot = -1019.45325971237 | etot = -764.476491923564
19300  ekin = 139.217636260533 |  erot = 141.035308839952 | edyn = 280.252945100485 | ebond = 38.994362394074 | eexcv = 0 | estk = -834.306079992239 | ehbond = -148.52557837767 | exstk = -113.128927794974 | ecoaxstk = 0 | edh = 36.4734210909098 | epot = -1020.4928026799 | etot = -740.239857579414
19400  ekin = 136.055744783982 |  erot = 138.219930359939 | edyn = 274.275675143921 | ebond = 42.9325032549396 | eexcv = 0 | estk = -824.499054287226 | ehbond = -157.067566294637 | exstk = -107.005507035318 | ecoaxstk = 0 | edh = 36.7955300290846 | epot = -1008.84409433316 | etot = -734.568419189237
19500  ekin = 143.040361437992 |  erot = 132.905040706882 | edyn = 275.945402144875 | ebond = 34.6304314470916 | eexcv = 0 | estk = -841.065391870581 | ehbond = -140.769137918121 | exstk = -113.543658770841 | ecoaxstk = 0 | edh = 36.789884761464 | epot = -1023.95787235099 | etot = -748.012470206113
19600  ekin = 133.256724133187 |  erot = 123.198653029197 | edyn = 256.455377162383 | ebond = 42.5475592494366 | eexcv = 0 | estk = -826.181212672244 | ehbond = -154.180937176267 | exstk = -116.204607160013 | ecoaxstk = 0 | edh = 36.6496674611649 | epot = -1017.36953029792 | etot = -760.914153135539
19700  ekin = 140.788275950295 |  erot = 143.699542954466 | edyn = 284.487818904761 | ebond = 47.323391653859 | eexcv = 0.0660753092473289 | estk = -841.642179598635 | ehbond = -154.421795078346 | exstk = -114.878408027718 | ecoaxstk = 0 | edh = 36.5800655320427 | epot = -1026.97285020955 | etot = -742.48503130479
19800  ekin = 136.112802583518 |  erot = 141.281900069065 | edyn = 277.394702652582 | ebond = 33.6157734388438 | eexcv = 0 | estk = -836.937645891714 | ehbond = -161.156937026036 | exstk = -106.83466386312 | ecoaxstk = 0 | edh = 36.3206801845967 | epot = -1034.99279315743 | etot = -757.598090504847
19900  ekin = 120.707175456136 |  erot = 133.46715240599 | edyn = 254.174327862126 | ebond = 46.8385298904894 | eexcv = 0 | estk = -838.695781630789 | ehbond = -154.675554341474 | exstk = -109.095730035218 | ecoaxstk = 0 | edh = 36.5619503679043 | epot = -1019.06658574909 | etot = -764.892257886961
20000  ekin = 133.952070170311 |  erot = 141.976713802843 | edyn = 275.928783973154 | ebond = 35.5836523721571 | eexcv = 0 | estk = -843.891365896236 | ehbond = -158.271140795027 | exstk = -117.636662844079 | ecoaxstk = 0 | edh = 35.9094413666302 | epot = -1048.30607579656 | etot = -772.377291823401
20100  ekin = 131.314386745975 |  erot = 140.978722484402 | edyn = 272.293109230377 | ebond = 43.1528083696017 | eexcv = 0 | estk = -839.696761840473 | ehbond = -162.683880854884 | exstk = -114.953005194748 | ecoaxstk = 0 | edh = 35.6500051282151 | epot = -1038.53083439229 | etot = -766.23772516191
20200  ekin = 129.467924052981 |  erot = 123.73805302062 | edyn = 253.2059770736 | ebond = 46.9127963291592 | eexcv = 0 | estk = -827.474179950927 | ehbond = -169.809917870581 | exstk = -116.620922689094 | ecoaxstk = 0 | edh = 35.0066055796944 | epot = -1031.98561860175 | etot = -778.779641528149
20300  ekin = 136.67450733553 |  erot = 131.0239690692 | edyn = 267.69847640473 | ebond = 34.6881268430342 | eexcv = 0 | estk = -836.806000633176 | ehbond = -165.370117735406 | exstk = -115.055184566299 | ecoaxstk = 0 | edh = 34.7405563602378 | epot = -1047.80261973161 | etot = -780.104143326879
20400  ekin = 136.728319697635 |  erot = 133.093237682324 | edyn = 269.821557379959 | ebond = 35.4255634505748 | eexcv = 0 | estk = -841.324689695864 | ehbond = -160.574642886599 | exstk = -114.478756251891 | ecoaxstk = 0 | edh = 35.0776776478893 | epot = -1045.87484773589 | etot = -776.053290355931
20500  ekin = 128.088642346731 |  erot = 141.194108323028 | edyn = 269.282750669758 | ebond = 39.5435299945473 | eexcv = 0 | estk = -833.6458666412 | ehbond = -153.339025876312 | exstk = -111.094186106598 | ecoaxstk = 0 | edh = 34.0839784682479 | epot = -1024.45157016131 | etot = -755.168819491555
20600  ekin = 134.612827177817 |  erot = 137.091804241354 | edyn = 271.704631419171 | ebond = 41.5119701153135 | eexcv = 0 | estk = -822.476096487151 | ehbond = -152.566380168506 | exstk = -102.770531738386 | ecoaxstk = 0 | edh = 33.5524341606596 | epot = -1002.74860411807 | etot = -731.043972698898
20700  ekin = 140.40532316018 |  erot = 143.088947040432 | edyn = 283.494270200611 | ebond = 36.8831521243939 | eexcv = 0 | estk = -817.022565020932 | ehbond = -171.679971759777 | exstk = -118.694432066304 | ecoaxstk = 0 | edh = 32.7449755359029 | epot = -1037.76884118672 | etot = -754.274570986105
20800  ekin = 130.749044804074 |  erot = 129.7323144544 | edyn = 260.481359258474 | ebond = 45.8727533382761 | eexcv = 0 | estk = -820.810798526053 | ehbond = -165.119499255843 | exstk = -118.34382860025 | ecoaxstk = 0 | edh = 32.9215588291444 | epot = -1025.47981421472 | etot = -764.998454956251
20900  ekin = 134.354601779441 |  erot = 139.061123711087 | edyn = 273.415725490528 | ebond = 42.6430958502769 | eexcv = 0 | estk = -825.582474654815 | ehbond = -163.420062756208 | exstk = -123.983500964423 | ecoaxstk = 0 | edh = 33.0199466491787 | epot = -1037.32299587599 | etot = -763.907270385462
21000  ekin = 132.338615991824 |  erot = 135.488927950875 | edyn = 267.827543942698 | ebond = 45.6561518825799 | eexcv = 0 | estk = -826.650171813538 | ehbond = -175.397834787752 | exstk = -106.289982468358 | ecoaxstk = 0 | edh = 33.995221003587 | epot = -1028.68661618348 | etot = -760.859072240783
21100  ekin = 129.188857112434 |  erot = 122.478362616287 | edyn = 251.66721972872 | ebond = 49.6952518949895 | eexcv = 0 | estk = -813.257498412792 | ehbond = -175.363481862347 | exstk = -107.731305496463 | ecoaxstk = 0 | edh = 34.4490158548443 | epot = -1012.20801802177 | etot = -760.540798293047
21200  ekin = 136.750956092438 |  erot = 130.021641593944 | edyn = 266.772597686382 | ebond = 34.1794981118865 | eexcv = 0 | estk = -808.87456357268 | ehbond = -175.906666805702 | exstk = -110.501569972234 | ecoaxstk = 0 | edh = 34.3821575671869 | epot = -1026.72114467154 | etot = -759.948546985161
21300  ekin = 133.092166349798 |  erot = 149.28967692058 | edyn = 282.381843270379 | ebond = 44.9160820173602 | eexcv = 0 | estk = -825.391157704028 | ehbond = -178.295572882024 | exstk = -109.494953577479 | ecoaxstk = 0 | edh = 34.1766989779629 | epot = -1034.08890316821 | etot = -751.707059897829
21400  ekin = 130.339113484176 |  erot = 132.524929139247 | edyn = 262.864042623423 | ebond = 35.7732108548904 | eexcv = 0 | estk = -829.164806360487 | ehbond = -174.740437771559 | exstk = -110.733115895611 | ecoaxstk = 0 | edh = 34.3907846068149 | epot = -1044.47436456595 | etot = -781.610321942528
21500  ekin = 128.688063189749 |  erot = 153.314567660168 | edyn = 282.002630849917 | ebond = 45.1495421575628 | eexcv = 0 | estk = -830.237907983528 | ehbond = -193.712157207803 | exstk = -109.826598266936 | ecoaxstk = 0 | edh = 35.3980657098009 | epot = -1053.2290555909 | etot = -771.226424740986
21600  ekin = 139.132851096938 |  erot = 143.26702917077 | edyn = 282.399880267708 | ebond = 38.3207265833114 | eexcv = 0 | estk = -829.854848542653 | ehbond = -184.46235679592 | exstk = -116.676939065379 | ecoaxstk = 0 | edh = 34.7788404601155 | epot = -1057.89457736053 | etot = -775.494697092818
21700  ekin = 121.807759462637 |  erot = 139.389869945465 | edyn = 261.197629408101 | ebond = 42.7130712362608 | eexcv = 0 | estk = -804.994018350736 | ehbond = -192.5066936756 | exstk = -118.026184507453 | ecoaxstk = 0 | edh = 34.4907804268601 | epot = -1038.32304487067 | etot = -777.125415462567
21800  ekin = 131.681625446799 |  erot = 142.277284737767 | edyn = 273.958910184566 | ebond = 42.4304152031368 | eexcv = 0 | estk = -821.898959621338 | ehbond = -198.848518144335 | exstk = -115.859057817632 | ecoaxstk = 0 | edh = 34.0151338839506 | epot = -1060.16098649622 | etot = -786.202076311652
21900  ekin = 133.329269805232 |  erot = 148.980270457826 | edyn = 282.309540263058 | ebond = 48.2835403936837 | eexcv = 0.0905927556857942 | estk = -820.328203609147 | ehbond = -189.945960467704 | exstk = -122.840031915577 | ecoaxstk = 0 | edh = 33.3293652331433 | epot = -1051.41069760992 | etot = -769.101157346857
22000  ekin = 137.818375270316 |  erot = 137.88426575015 | edyn = 275.702641020466 | ebond = 39.2924157156603 | eexcv = 0 | estk = -821.529166216642 | ehbond = -181.267861073344 | exstk = -122.040856578 | ecoaxstk = 0 | edh = 33.2915376116188 | epot = -1052.25393054071 | etot = -776.551289520241
22100  ekin = 130.574477254633 |  erot = 141.945618685768 | edyn = 272.520095940401 | ebond = 42.6441318807566 | eexcv = 0 | estk = -804.810317851025 | ehbond = -188.403370934263 | exstk = -128.770940484318 | ecoaxstk = 0 | edh = 32.5355725896767 | epot = -1046.80492479917 | etot = -774.284828858771
22200  ekin = 150.354244317167 |  erot = 131.596882577598 | edyn = 281.951126894764 | ebond = 41.6917974610474 | eexcv = 0 | estk = -824.914167543504 | ehbond = -192.920397479888 | exstk = -125.30123159288 | ecoaxstk = 0 | edh = 33.2089299141755 | epot = -1068.23506924105 | etot = -786.283942346286
22300  ekin = 134.130600925817 |  erot = 136.896513743898 | edyn = 271.027114669715 | ebond = 45.3426965764982 | eexcv = 0 | estk = -811.026219008683 | ehbond = -194.797999263295 | exstk = -115.270458456976 | ecoaxstk = 0 | edh = 34.090177281577 | epot = -1041.66180287088 | etot = -770.634688201164
22400  ekin = 147.11656357147 |  erot = 116.531358800296 | edyn = 263.647922371765 | ebond = 37.450645587995 | eexcv = 0 | estk = -828.003169096392 | ehbond = -187.305074636268 | exstk = -118.53737300694 | ecoaxstk = 0 | edh = 33.9902272047114 | epot = -1062.40474394689 | etot = -798.756821575128
22500  ekin = 140.54620546516 |  erot = 134.145960410729 | edyn = 274.69216587589 | ebond = 35.920197919919 | eexcv = 0 | estk = -816.250810144274 | ehbond = -179.007562750228 | exstk = -124.060614770597 | ecoaxstk = 0 | edh = 34.6789330078438 | epot = -1048.71985673734 | etot = -774.027690861447
22600  ekin = 119.531758581415 |  erot = 148.537057966679 | edyn = 268.068816548094 | ebond = 37.6702757006966 | eexcv = 0 | estk = -803.741160732914 | ehbond = -199.707439617724 | exstk = -121.139452233477 | ecoaxstk = 0 | edh = 34.4532718215496 | epot = -1052.46450506187 | etot = -784.395688513775
22700  ekin = 142.336802299562 |  erot = 113.61842146753 | edyn = 255.955223767092 | ebond = 35.9717179208411 | eexcv = 0 | estk = -822.350662168045 | ehbond = -192.29281479497 | exstk = -131.770857559539 | ecoaxstk = 0 | edh = 33.8818188620108 | epot = -1076.5607977397 | etot = -820.60557397261
22800  ekin = 118.965911348501 |  erot = 121.134531594072 | edyn = 240.100442942574 | ebond = 37.4892639585765 | eexcv = 0 | estk = -811.934321238592 | ehbond = -177.614159113397 | exstk = -128.801864722903 | ecoaxstk = 0 | edh = 33.142048325125 | epot = -1047.71903279119 | etot = -807.618589848617
22900  ekin = 130.918068262402 |  erot = 123.613015876399 | edyn = 254.531084138801 | ebond = 41.5638329707342 | eexcv = 0 | estk = -834.855475368204 | ehbond = -187.887082566305 | exstk = -135.504103331455 | ecoaxstk = 0 | edh = 32.8972891298159 | epot = -1083.78553916541 | etot = -829.254455026613
23000  ekin = 125.227162443298 |  erot = 134.341163418623 | edyn = 259.568325861921 | ebond = 44.5991372090087 | eexcv = 0 | estk = -812.190024051142 | ehbond = -194.79305989688 | exstk = -135.127911254525 | ecoaxstk = 0 | edh = 32.6846493146351 | epot = -1064.8272086789 | etot = -805.258882816983
23100  ekin = 126.95834303125 |  erot = 126.796131895167 | edyn = 253.754474926417 | ebond = 44.3963358209969 | eexcv = 0 | estk = -815.604059646352 | ehbond = -186.722184256823 | exstk = -131.100696684356 | ecoaxstk = 0 | edh = 32.2176035139735 | epot = -1056.81300125256 | etot = -803.058526326143
23200  ekin = 133.439617426753 |  erot = 133.268595095586 | edyn = 266.708212522339 | ebond = 39.90682211623 | eexcv = 0 | estk = -818.577836890927 | ehbond = -190.804638788603 | exstk = -131.215983214626 | ecoaxstk = 0 | edh = 32.5368848519049 | epot = -1068.15475192602 | etot = -801.446539403683
23300  ekin = 119.966259657171 |  erot = 138.533699407764 | edyn = 258.499959064935 | ebond = 39.8450796866707 | eexcv = 0 | estk = -825.463624600249 | ehbond = -188.605442640926 | exstk = -126.124306013478 | ecoaxstk = 0 | edh = 34.2032684498794 | epot = -1066.1450251181 | etot = -807.645066053168
23400  ekin = 140.137199007723 |  erot = 128.215489575103 | edyn = 268.352688582825 | ebond = 32.9902690134544 | eexcv = 0 | estk = -830.093677097201 | ehbond = -185.068010118405 | exstk = -127.239449380775 | ecoaxstk = 0 | edh = 34.6898855302578 | epot = -1074.72098205267 | etot = -806.368293469845
23500  ekin = 130.667612282596 |  erot = 133.555246620871 | edyn = 264.222858903467 | ebond = 36.8189734260648 | eexcv = 0 | estk = -812.877227515911 | ehbond = -174.623938528005 | exstk = -129.152696562315 | ecoaxstk = 0 | edh = 35.0480349702577 | epot = -1044.78685420991 | etot = -780.563995306442
23600  ekin = 128.016484001875 |  erot = 147.672176829085 | edyn = 275.68866083096 | ebond = 42.0703588036928 | eexcv = 0 | estk = -813.043199518553 | ehbond = -189.023073297289 | exstk = -119.756228791265 | ecoaxstk = 0 | edh = 34.938028791319 | epot = -1044.81411401209 | etot = -769.125453181135
23700  ekin = 136.53680344058 |  erot = 150.253666854655 | edyn = 286.790470295235 | ebond = 45.6061781966869 | eexcv = 0 | estk = -806.782861539167 | ehbond = -181.435528666698 | exstk = -123.530828688351 | ecoaxstk = 0 | edh = 35.2855866764581 | epot = -1030.85745402107 | etot = -744.066983725835
23800  ekin = 135.286956906631 |  erot = 133.936137941206 | edyn = 269.223094847836 | ebond = 43.5208951231495 | eexcv = 0 | estk = -814.638764987651 | ehbond = -183.373259693511 | exstk = -116.399174435448 | ecoaxstk = 0 | edh = 35.1604193959173 | epot = -1035.72988459754 | etot = -766.506789749706
23900  ekin = 125.565193928228 |  erot = 128.133735361796 | edyn = 253.698929290024 | ebond = 39.0477763718261 | eexcv = 0 | estk = -805.130596669047 | ehbond = -190.396367428752 | exstk = -114.191212182153 | ecoaxstk = 0 | edh = 35.4632897312048 | epot = -1035.20711017692 | etot = -781.508180886898
24000  ekin = 122.342395413039 |  erot = 125.409329378105 | edyn = 247.751724791144 | ebond = 47.3750601874349 | eexcv = 0 | estk = -820.506797662131 | ehbond = -192.079888623093 | exstk = -119.061970140407 | ecoaxstk = 0 | edh = 35.0395663235618 | epot = -1049.23402991463 | etot = -801.482305123491
[...]
494000  ekin = 127.710994336282 |  erot = 113.174730437977 | edyn = 240.88572477426 | ebond = 40.9370563421675 | eexcv = 0 | estk = -823.549112477815 | ehbond = -344.947153768015 | exstk = -145.847593724514 | ecoaxstk = 0 | edh = 28.5626199472223 | epot = -1244.84418368095 | etot = -1003.9584589067
494100  ekin = 122.709745668546 |  erot = 121.560447987722 | edyn = 244.270193656267 | ebond = 34.7250000640393 | eexcv = 0 | estk = -820.63559185734 | ehbond = -344.560516430185 | exstk = -144.345534287122 | ecoaxstk = 0 | edh = 28.66835245494 | epot = -1246.14829005567 | etot = -1001.8780963994
494200  ekin = 126.490658166818 |  erot = 128.455870809013 | edyn = 254.946528975831 | ebond = 39.5442657524857 | eexcv = 0 | estk = -817.141092271785 | ehbond = -340.059295620873 | exstk = -142.616184960603 | ecoaxstk = 0 | edh = 28.6977777879302 | epot = -1231.57452931285 | etot = -976.628000337014
494300  ekin = 144.212061539755 |  erot = 136.805810562119 | edyn = 281.017872101874 | ebond = 40.7074819716089 | eexcv = 0 | estk = -817.575715349348 | ehbond = -330.313645360166 | exstk = -142.589966830994 | ecoaxstk = 0 | edh = 28.9432269255789 | epot = -1220.82861864332 | etot = -939.810746541446
494400  ekin = 144.623389665956 |  erot = 149.535792023559 | edyn = 294.159181689516 | ebond = 42.0329108038641 | eexcv = 0 | estk = -820.007537061454 | ehbond = -321.106959870113 | exstk = -139.43123389197 | ecoaxstk = 0 | edh = 29.5723986338879 | epot = -1208.94042138578 | etot = -914.781239696269
494500  ekin = 127.903814825098 |  erot = 144.479113965501 | edyn = 272.382928790599 | ebond = 51.4074163967184 | eexcv = 0 | estk = -792.912348757398 | ehbond = -323.890639582542 | exstk = -149.546946323441 | ecoaxstk = 0 | edh = 29.5591248816262 | epot = -1185.38339338504 | etot = -913.000464594438
494600  ekin = 139.848367620793 |  erot = 136.656358763107 | edyn = 276.5047263839 | ebond = 38.5219188495442 | eexcv = 0 | estk = -815.187249881531 | ehbond = -339.08335672647 | exstk = -138.712858580367 | ecoaxstk = 0 | edh = 29.6652391846205 | epot = -1224.7963071542 | etot = -948.291580770304
494700  ekin = 128.302939462248 |  erot = 119.400463569957 | edyn = 247.703403032205 | ebond = 40.6877091483177 | eexcv = 0 | estk = -813.516497045349 | ehbond = -316.803348646844 | exstk = -144.917520534601 | ecoaxstk = 0 | edh = 29.3773351726946 | epot = -1205.17232190578 | etot = -957.468918873577
494800  ekin = 137.412015148058 |  erot = 145.393547446971 | edyn = 282.805562595029 | ebond = 46.1668739095206 | eexcv = 0 | estk = -817.183140564225 | ehbond = -330.705375885115 | exstk = -142.743033016839 | ecoaxstk = 0 | edh = 29.2622038588411 | epot = -1215.20247169782 | etot = -932.396909102789
494900  ekin = 132.446727872284 |  erot = 145.585880482377 | edyn = 278.032608354661 | ebond = 53.8342466056552 | eexcv = 0 | estk = -806.329455780797 | ehbond = -349.233753545309 | exstk = -139.997252067837 | ecoaxstk = 0 | edh = 29.313480894884 | epot = -1212.4127338934 | etot = -934.380125538743
495000  ekin = 147.350974912344 |  erot = 132.749153857475 | edyn = 280.100128769819 | ebond = 32.9206388878179 | eexcv = 0 | estk = -830.418617608823 | ehbond = -321.939767742185 | exstk = -138.708111069422 | ecoaxstk = 0 | edh = 29.1904936733131 | epot = -1228.9553638593 | etot = -948.85523508948
495100  ekin = 154.531188054362 |  erot = 136.020923297524 | edyn = 290.552111351886 | ebond = 48.0271489728707 | eexcv = 0 | estk = -833.181909345382 | ehbond = -340.049469573312 | exstk = -139.259712689697 | ecoaxstk = 0 | edh = 28.9381738391263 | epot = -1235.52576879639 | etot = -944.973657444507
495200  ekin = 143.472614523448 |  erot = 143.308623284311 | edyn = 286.781237807759 | ebond = 37.88946703418 | eexcv = 0 | estk = -807.007614385169 | ehbond = -340.379778112066 | exstk = -148.624246374629 | ecoaxstk = 0 | edh = 28.1450459936274 | epot = -1229.97712584406 | etot = -943.195888036298
495300  ekin = 133.684867753064 |  erot = 130.051694647103 | edyn = 263.736562400168 | ebond = 37.573255171373 | eexcv = 0 | estk = -822.712529371602 | ehbond = -347.531095842414 | exstk = -141.362856294993 | ecoaxstk = 0 | edh = 28.1516017179931 | epot = -1245.88162461964 | etot = -982.145062219476
495400  ekin = 113.935125943135 |  erot = 130.719899843396 | edyn = 244.655025786531 | ebond = 33.8302865070719 | eexcv = 0 | estk = -812.105280775243 | ehbond = -340.243393260167 | exstk = -142.038597005696 | ecoaxstk = 0 | edh = 27.9895842004444 | epot = -1232.56740033359 | etot = -987.912374547058
495500  ekin = 133.988380198339 |  erot = 125.986984023511 | edyn = 259.97536422185 | ebond = 34.1007793856194 | eexcv = 0 | estk = -831.588965719285 | ehbond = -352.277418644013 | exstk = -147.721271781328 | ecoaxstk = 0 | edh = 28.3465149395616 | epot = -1269.14036181944 | etot = -1009.16499759759
495600  ekin = 124.957756421368 |  erot = 123.918656529961 | edyn = 248.876412951329 | ebond = 36.9699902263568 | eexcv = 0 | estk = -832.962755812404 | ehbond = -361.935339749302 | exstk = -146.994925779901 | ecoaxstk = 0 | edh = 28.6046110263737 | epot = -1276.31842008888 | etot = -1027.44200713755
495700  ekin = 132.225527931904 |  erot = 118.022793225105 | edyn = 250.24832115701 | ebond = 26.6164912650804 | eexcv = 0 | estk = -833.409384368148 | ehbond = -351.538653541841 | exstk = -147.298042969509 | ecoaxstk = 0 | edh = 28.5572655635343 | epot = -1277.07232405088 | etot = -1026.82400289387
495800  ekin = 135.678850482794 |  erot = 119.753898254532 | edyn = 255.432748737326 | ebond = 35.9674823597373 | eexcv = 0 | estk = -831.35037998947 | ehbond = -331.949280610204 | exstk = -148.468940092732 | ecoaxstk = 0 | edh = 28.6318283354633 | epot = -1247.16928999721 | etot = -991.73654125988
495900  ekin = 127.520302912429 |  erot = 139.830691293652 | edyn = 267.35099420608 | ebond = 44.0486874668481 | eexcv = 0 | estk = -828.226525345832 | ehbond = -330.583235249846 | exstk = -144.539088479002 | ecoaxstk = 0 | edh = 28.8632895428798 | epot = -1230.43687206495 | etot = -963.085877858871
496000  ekin = 126.545882537328 |  erot = 135.926377575228 | edyn = 262.472260112556 | ebond = 45.334459224613 | eexcv = 0 | estk = -817.905187630507 | ehbond = -346.480083385454 | exstk = -149.357779107771 | ecoaxstk = 0 | edh = 28.8484682027305 | epot = -1239.56012269639 | etot = -977.087862583833
496100  ekin = 129.656326563564 |  erot = 141.878781984549 | edyn = 271.535108548113 | ebond = 38.2420267908039 | eexcv = 0 | estk = -821.999504094063 | ehbond = -331.751457985002 | exstk = -146.464599913939 | ecoaxstk = 0 | edh = 28.7293709476914 | epot = -1233.24416425451 | etot = -961.709055706395
496200  ekin = 141.276349643219 |  erot = 130.553577064526 | edyn = 271.829926707744 | ebond = 41.9550150371444 | eexcv = 0 | estk = -814.049641995755 | ehbond = -317.652712572076 | exstk = -142.224870917033 | ecoaxstk = 0 | edh = 28.9786216424181 | epot = -1202.9935888053 | etot = -931.163662097557
496300  ekin = 133.596766144631 |  erot = 123.483221194053 | edyn = 257.079987338684 | ebond = 38.9798467548607 | eexcv = 0 | estk = -810.322965789415 | ehbond = -329.20598965974 | exstk = -137.741633462365 | ecoaxstk = 0 | edh = 28.7837158751106 | epot = -1209.50702628155 | etot = -952.427038942864
496400  ekin = 129.616490895375 |  erot = 138.323336906139 | edyn = 267.939827801514 | ebond = 39.1108976378116 | eexcv = 0 | estk = -826.500510414756 | ehbond = -343.046908059543 | exstk = -148.708607251394 | ecoaxstk = 0 | edh = 28.5247362371359 | epot = -1250.62039185075 | etot = -982.680564049232
496500  ekin = 126.252154884402 |  erot = 129.853006516864 | edyn = 256.105161401266 | ebond = 31.6167168272346 | eexcv = 0 | estk = -834.981973865032 | ehbond = -340.126584341439 | exstk = -146.679366491921 | ecoaxstk = 0 | edh = 28.9814771692316 | epot = -1261.18973070193 | etot = -1005.08456930066
496600  ekin = 128.885695105489 |  erot = 121.504714397156 | edyn = 250.390409502646 | ebond = 34.3630047725915 | eexcv = 0 | estk = -838.291184936693 | ehbond = -336.720205351394 | exstk = -137.326881230957 | ecoaxstk = 0 | edh = 29.278066246992 | epot = -1248.69720049946 | etot = -998.306790996814
496700  ekin = 132.480580954299 |  erot = 143.722317432 | edyn = 276.202898386298 | ebond = 41.3482996280115 | eexcv = 0 | estk = -823.376007242355 | ehbond = -336.220784458633 | exstk = -142.044711611576 | ecoaxstk = 0 | edh = 29.3528310228457 | epot = -1230.94037266171 | etot = -954.737474275408
496800  ekin = 133.087494112496 |  erot = 139.560969724582 | edyn = 272.648463837078 | ebond = 47.8575388375059 | eexcv = 0 | estk = -826.108063875057 | ehbond = -331.291346453805 | exstk = -145.631090537251 | ecoaxstk = 0 | edh = 29.2900454386805 | epot = -1225.88291658993 | etot = -953.234452752849
496900  ekin = 117.998718510241 |  erot = 151.581787342525 | edyn = 269.580505852765 | ebond = 39.8819548204973 | eexcv = 0 | estk = -840.06390555785 | ehbond = -329.673642029603 | exstk = -133.985998216329 | ecoaxstk = 0 | edh = 29.4827639815233 | epot = -1234.35882700176 | etot = -964.778321148996
497000  ekin = 116.753766583407 |  erot = 140.995615604764 | edyn = 257.749382188171 | ebond = 35.3089416560607 | eexcv = 0 | estk = -809.578372167007 | ehbond = -335.147302785187 | exstk = -134.12189019141 | ecoaxstk = 0 | edh = 29.3787543491338 | epot = -1214.15986913841 | etot = -956.410486950239
497100  ekin = 140.653853605007 |  erot = 131.208564067282 | edyn = 271.862417672289 | ebond = 43.059502430962 | eexcv = 0 | estk = -844.716039260474 | ehbond = -329.966128364096 | exstk = -136.275738569803 | ecoaxstk = 0 | edh = 29.6128832527786 | epot = -1238.28552051063 | etot = -966.423102838343
497200  ekin = 120.996375699352 |  erot = 132.763364367981 | edyn = 253.759740067334 | ebond = 51.3576212624597 | eexcv = 0 | estk = -828.191868939504 | ehbond = -332.182072160822 | exstk = -139.349615907405 | ecoaxstk = 0 | edh = 29.5408931301839 | epot = -1218.82504261509 | etot = -965.065302547753
497300  ekin = 131.571377258882 |  erot = 136.23483033251 | edyn = 267.806207591393 | ebond = 44.6356158814889 | eexcv = 0 | estk = -846.652853458505 | ehbond = -326.139104663148 | exstk = -142.47039615235 | ecoaxstk = 0 | edh = 29.0063345244573 | epot = -1241.62040386806 | etot = -973.814196276664
497400  ekin = 125.387410458548 |  erot = 137.848353856332 | edyn = 263.23576431488 | ebond = 35.8735785678946 | eexcv = 0 | estk = -838.86054958983 | ehbond = -333.826697981729 | exstk = -146.915755521464 | ecoaxstk = 0 | edh = 29.0177896741435 | epot = -1254.71163485099 | etot = -991.475870536105
497500  ekin = 123.78672384494 |  erot = 132.867365671803 | edyn = 256.654089516743 | ebond = 35.4993156911066 | eexcv = 0 | estk = -829.306073893089 | ehbond = -337.569950596561 | exstk = -140.913290486754 | ecoaxstk = 0 | edh = 29.2808841364043 | epot = -1243.00911514889 | etot = -986.35502563215
497600  ekin = 121.645330078946 |  erot = 127.776760198491 | edyn = 249.422090277437 | ebond = 44.3468667716088 | eexcv = 0 | estk = -820.693966713615 | ehbond = -322.774488875021 | exstk = -147.131351452653 | ecoaxstk = 0 | edh = 29.3877020128484 | epot = -1216.86523825683 | etot = -967.443147979395
497700  ekin = 136.480341662604 |  erot = 129.085992735746 | edyn = 265.566334398349 | ebond = 42.7677761686083 | eexcv = 0 | estk = -848.521908888851 | ehbond = -345.490718531261 | exstk = -134.973031253568 | ecoaxstk = 0 | edh = 29.588951484672 | epot = -1256.6289310204 | etot = -991.062596622051
497800  ekin = 130.714133333219 |  erot = 139.24173567784 | edyn = 269.955869011059 | ebond = 40.0314502139353 | eexcv = 0 | estk = -835.118618837369 | ehbond = -342.437503546611 | exstk = -145.00582996745 | ecoaxstk = 0 | edh = 29.1308239543469 | epot = -1253.39967818315 | etot = -983.443809172089
497900  ekin = 124.710162432039 |  erot = 114.024691411007 | edyn = 238.734853843046 | ebond = 43.4721097500353 | eexcv = 0 | estk = -831.141697496195 | ehbond = -338.69225353346 | exstk = -148.565463251122 | ecoaxstk = 0 | edh = 29.0809884509367 | epot = -1245.8463160798 | etot = -1007.11146223676
498000  ekin = 126.552129447529 |  erot = 123.088929346169 | edyn = 249.641058793698 | ebond = 40.1898197081413 | eexcv = 0 | estk = -839.226040512884 | ehbond = -338.768106881473 | exstk = -133.83418713442 | ecoaxstk = 0 | edh = 28.8524139941103 | epot = -1242.78610082653 | etot = -993.145042032828
498100  ekin = 117.931574354876 |  erot = 138.750456961897 | edyn = 256.682031316773 | ebond = 46.3195206326509 | eexcv = 0 | estk = -820.378968114111 | ehbond = -346.056174927959 | exstk = -150.535526828137 | ecoaxstk = 0 | edh = 28.1942205031144 | epot = -1242.45692873444 | etot = -985.774897417669
498200  ekin = 128.552845677595 |  erot = 130.180295143705 | edyn = 258.7331408213 | ebond = 39.1877575118247 | eexcv = 0 | estk = -819.754981687262 | ehbond = -337.317837305864 | exstk = -149.063130240837 | ecoaxstk = 0 | edh = 28.159908044001 | epot = -1238.78828367814 | etot = -980.055142856838
498300  ekin = 125.01911401336 |  erot = 117.863991804141 | edyn = 242.883105817502 | ebond = 41.5307245636464 | eexcv = 0 | estk = -819.279170076658 | ehbond = -331.478422452431 | exstk = -147.733152904933 | ecoaxstk = 0 | edh = 28.4043223870064 | epot = -1228.55569848337 | etot = -985.672592665868
498400  ekin = 132.541346857281 |  erot = 134.067933475146 | edyn = 266.609280332427 | ebond = 42.9409020140208 | eexcv = 0 | estk = -826.206953933155 | ehbond = -350.385535460323 | exstk = -149.519520995324 | ecoaxstk = 0 | edh = 28.1999012247177 | epot = -1254.97120715006 | etot = -988.361926817636
498500  ekin = 115.940436502465 |  erot = 128.987140100894 | edyn = 244.927576603359 | ebond = 38.5840990320055 | eexcv = 0 | estk = -812.488114421612 | ehbond = -328.272419136214 | exstk = -154.030656352648 | ecoaxstk = 0 | edh = 28.2849346765629 | epot = -1227.92215620191 | etot = -982.994579598546
498600  ekin = 125.097677454581 |  erot = 122.511784334219 | edyn = 247.609461788799 | ebond = 43.2672272909965 | eexcv = 0 | estk = -820.701333461711 | ehbond = -336.305481599802 | exstk = -149.263335836285 | ecoaxstk = 0 | edh = 28.5931809028018 | epot = -1234.409742704 | etot = -986.800280915201
498700  ekin = 121.426328086638 |  erot = 126.420561683689 | edyn = 247.846889770327 | ebond = 44.992564443348 | eexcv = 0 | estk = -811.24816336796 | ehbond = -350.057888817463 | exstk = -144.961277108314 | ecoaxstk = 0 | edh = 28.5416793672827 | epot = -1232.73308548311 | etot = -984.886195712779
498800  ekin = 129.571443331874 |  erot = 135.35738349188 | edyn = 264.928826823754 | ebond = 43.6643223451382 | eexcv = 0 | estk = -819.139716652865 | ehbond = -355.899262699724 | exstk = -152.316323173376 | ecoaxstk = 0 | edh = 27.8353805417213 | epot = -1255.85559963911 | etot = -990.926772815352
498900  ekin = 136.182676233527 |  erot = 137.954464601676 | edyn = 274.137140835203 | ebond = 37.2071951689934 | eexcv = 0 | estk = -823.0029426995 | ehbond = -333.476960454467 | exstk = -145.216266788191 | ecoaxstk = 0 | edh = 28.0714525544272 | epot = -1236.41752221874 | etot = -962.280381383534
499000  ekin = 133.877529687031 |  erot = 145.462163257598 | edyn = 279.339692944629 | ebond = 36.2163144801878 | eexcv = 0 | estk = -812.164012855381 | ehbond = -338.563804721241 | exstk = -141.726294046471 | ecoaxstk = 0 | edh = 28.089301408788 | epot = -1228.14849573412 | etot = -948.808802789487
499100  ekin = 133.743295624801 |  erot = 119.144401871333 | edyn = 252.887697496135 | ebond = 41.4914587476063 | eexcv = 0 | estk = -816.760006611552 | ehbond = -342.591957992923 | exstk = -154.192858929637 | ecoaxstk = 0 | edh = 27.929044226038 | epot = -1244.12432056047 | etot = -991.236623064333
499200  ekin = 130.627993062975 |  erot = 135.539238976904 | edyn = 266.167232039879 | ebond = 48.041017644321 | eexcv = 0 | estk = -832.563908249463 | ehbond = -326.884102321224 | exstk = -157.446718070232 | ecoaxstk = 0 | edh = 27.9124149838622 | epot = -1240.94129601274 | etot = -974.774063972856
499300  ekin = 127.244406176802 |  erot = 140.631549858243 | edyn = 267.875956035045 | ebond = 44.0805294855165 | eexcv = 0 | estk = -825.301359949047 | ehbond = -354.167242821651 | exstk = -147.803645759793 | ecoaxstk = 0 | edh = 28.1448822959032 | epot = -1255.04683674907 | etot = -987.170880714026
499400  ekin = 140.268759129716 |  erot = 123.785731607299 | edyn = 264.054490737016 | ebond = 47.5896135326758 | eexcv = 0 | estk = -819.057679533984 | ehbond = -345.443836269246 | exstk = -149.113614060971 | ecoaxstk = 0 | edh = 27.9467488709566 | epot = -1238.07876746057 | etot = -974.024276723552
499500  ekin = 154.015745716151 |  erot = 126.740269606889 | edyn = 280.75601532304 | ebond = 40.9693956970878 | eexcv = 0 | estk = -815.881408749363 | ehbond = -346.050782975943 | exstk = -135.062658895416 | ecoaxstk = 0 | edh = 28.304648522467 | epot = -1227.72080640117 | etot = -946.964791078126
499600  ekin = 139.832868901331 |  erot = 135.360072327558 | edyn = 275.192941228888 | ebond = 44.6125003542606 | eexcv = 0 | estk = -824.244236093467 | ehbond = -337.619198686265 | exstk = -143.881091312348 | ecoaxstk = 0 | edh = 28.8023471131587 | epot = -1232.32967862466 | etot = -957.136737395772
499700  ekin = 123.436922629997 |  erot = 135.992083362611 | edyn = 259.429005992608 | ebond = 41.5257889108086 | eexcv = 0 | estk = -830.538346672947 | ehbond = -329.576018247256 | exstk = -154.774559007176 | ecoaxstk = 0 | edh = 29.2701101217531 | epot = -1244.09302489482 | etot = -984.66401890221
499800  ekin = 121.636818910405 |  erot = 126.406270375236 | edyn = 248.043089285641 | ebond = 44.2547704457096 | eexcv = 0 | estk = -811.582035239386 | ehbond = -345.894227070467 | exstk = -152.419176948764 | ecoaxstk = 0 | edh = 29.2605182352082 | epot = -1236.3801505777 | etot = -988.337061292058
499900  ekin = 135.013910117689 |  erot = 139.811733259526 | edyn = 274.825643377215 | ebond = 36.8713158775522 | eexcv = 0 | estk = -823.234021779589 | ehbond = -340.060204039516 | exstk = -145.351737051108 | ecoaxstk = 0 | edh = 28.9753912054473 | epot = -1242.79925578721 | etot = -967.973612409998
500000  ekin = 127.502215826526 |  erot = 114.99045610212 | edyn = 242.492671928646 | ebond = 33.8674257248005 | eexcv = 0 | estk = -818.591846442717 | ehbond = -335.363643722412 | exstk = -144.182911731869 | ecoaxstk = 0 | edh = 28.3811644682469 | epot = -1235.88981170395 | etot = -993.397139775304
    500000   290.98198     -1269.7572      33.867426     -1108.3876      0.0011652731   6.1629505e+08
Loop time of 34.9442 on 8 procs for 500000 steps with 148 atoms

Performance: 10542.368 ns/day, 0.002 hours/ns, 14308.513 timesteps/s, 2.118 Matom-step/s
99.9% CPU use with 8 MPI tasks x 1 OpenMP threads

MPI task timing breakdown:
Section |  min time  |  avg time  |  max time  |%varavg| %total
---------------------------------------------------------------
Pair    | 0.93851    | 11.882     | 21.459     | 211.8 | 34.00
Bond    | 0.045667   | 0.31308    | 0.54465    |  31.5 |  0.90
Neigh   | 0.009829   | 0.0098566  | 0.009884   |   0.0 |  0.03
Comm    | 6.6035     | 15.881     | 26.406     | 172.7 | 45.45
Output  | 0.052968   | 0.060609   | 0.066067   |   1.9 |  0.17
Modify  | 3.5554     | 4.7043     | 5.7134     |  35.4 | 13.46
Other   |            | 2.094      |            |       |  5.99

Nlocal:           18.5 ave          38 max           0 min
Histogram: 2 2 0 0 0 0 0 2 0 2
Nghost:          129.5 ave         148 max         110 min
Histogram: 2 0 2 0 0 0 0 0 2 2
Neighs:         548.25 ave        1501 max           0 min
Histogram: 2 2 0 0 0 2 1 0 0 1

Total # of neighbors = 4386
Ave neighs/atom = 29.635135
Ave special neighs/atom = 6
Neighbor list builds = 510
Dangerous builds = 0

#write_data last_config.${number}.* nocoeff
#write_restart last_config.${number}.*
Total wall time: 0:00:34
