LAMMPS (30 Mar 2026 - Development - patch_30Mar2026-1172-ga5699be614)
OMP_NUM_THREADS environment is not set. Defaulting to 1 thread.
  using 1 OpenMP thread(s) per MPI task
units           real
dimension       3
boundary        p p p
atom_style      atomic
#               ldd ntypes
newton          on
timestep        1.0

region my_box block  0.000000 53.2587274361 0.000000 53.2587274361 0.000000 480
create_box 1 my_box
Created orthogonal box = (0 0 0) to (53.258727 53.258727 480)
  1 by 1 by 4 MPI processor grid

create_atoms 1 random 968 13427890 my_box overlap 2
Created 968 atoms
  using lattice units in orthogonal box = (0 0 0) to (53.258727 53.258727 480)
  create_atoms CPU = 0.005 seconds

mass 1 32.042

velocity        all create 270 22345 dist gaussian

pair_style     hybrid/overlay ldd lj/cut 14.0
#pair_style     hybrid/overlay ldd table spline N

pair_coeff      1 1 lj/cut 1 1
# map atom type 1 to local-density species A (defined in the potential file)
pair_coeff      * * ldd basic.ldd A

neigh_modify    delay 5 every 1 check yes
neighbor        2.0 bin
thermo          1000

# The per-atom local-density data computed by pair style ldd is made available
# to the rest of LAMMPS through "fix pair".  The fields are local_density,
# grad_density, energy, grad_energy (one column per species), and total_energy.
# Here we pull the density and total LD energy of species A into a per-atom array
# f_lddout (column 1 = local_density of A, column 2 = total_energy).
# fix lddout all pair 1 ldd local_density 0 total_energy 0


# Converting lammps real units to gmx/bocs units
# Uncomment if want to use the print statements below
# variable STEP equal step
# variable TEMP equal temp
# variable VOL equal vol/1000.0
# variable PRESS equal press*1.01325

## Set various fixes
fix             1  all      nvt        temp       270  270 100.0 #iso 0.986 0.986 1000.0

run_style       verlet

# Printing various stats in gmx/bocs units
# fix             print_temp all print 500 "${STEP} ${TEMP}" file temp.dat screen no
# fix             print_vol all print 500 "${STEP} ${VOL}" file vol.dat screen no
# fix             print_press all print 500 "${STEP} ${PRESS}" file press.dat screen no
# fix           print_pv  all print 500 "${VOL} ${PRESS}" file PV.dat screen no

## Dump the per-atom local-density quantities (needs the "fix lddout" above).
# dump           2 all custom 1000 bocs_traj.lmp id x y z vx vy vz fx fy fz f_lddout[1] f_lddout[2]
# dump_modify   2 sort id
# dump_modify   2 colname f_lddout[1] lddens1
# dump_modify   2 colname f_lddout[2] lddttlnrg


# Write restart files to continue simulations
# restart 100000 state1.restart state2.restart

## Run for this many steps
run 10000

CITE-CITE-CITE-CITE-CITE-CITE-CITE-CITE-CITE-CITE-CITE-CITE-CITE

Your simulation uses code contributions which should be cited:

- pair ldd command: doi:10.1063/1.5128665

@Article{DeLyser1,
 author = {Michael R. DeLyser and W. G. Noid},
 title = {Analysis of local density potentials},
 journal = {The journal of chemical physics},
 year =    2019,
 volume =  151,
 pages =   {22:224106}
}

- pair ldd command gradient keyword: doi:10.1063/5.0075291

@Article{DeLyser2,
 author = {Michael R. DeLyser and W. G. Noid},
 title = {Coarse-grained models for local density gradients},
 journal = {The Journal of Chemical Physics},
 year =    2021,
 volume =  156,
 pages =   {034106}
}

CITE-CITE-CITE-CITE-CITE-CITE-CITE-CITE-CITE-CITE-CITE-CITE-CITE

Neighbor list info ...
  update: every = 1 steps, delay = 5 steps, check = yes
  max neighbors/atom: 2000, page size: 100000
  master list distance cutoff = 16
  ghost atom cutoff = 16
  binsize = 8, bins = 7 7 60
  2 neighbor lists, perpetual/occasional/extra = 2 0 0
  (1) pair ldd, perpetual
      attributes: half, newton on
      pair build: half/bin/atomonly/newton
      stencil: half/bin/3d
      bin: standard
  (2) pair lj/cut, perpetual
      attributes: half, newton on, cut 16
      pair build: half/bin/atomonly/newton
      stencil: half/bin/3d
      bin: standard
Per MPI rank memory allocation (min/avg/max) = 3.727 | 3.728 | 3.728 Mbytes
   Step          Temp          E_pair         E_mol          TotEng         Press     
         0   270            981.80184      0              1760.0615      26.091041    
      1000   265.24617      979.87215      0              1744.4292      25.462114    
      2000   277.01123      976.37254      0              1774.8417      26.661838    
      3000   274.50105      976.34324      0              1767.577       26.433972    
      4000   273.37904      978.21948      0              1766.2191      26.285133    
      5000   262.33059      976.2015       0              1732.3545      25.079072    
      6000   261.20181      980.69113      0              1733.5905      25.33691     
      7000   265.52134      978.46062      0              1743.8108      25.386984    
      8000   279.99995      980.25091      0              1787.3349      27.371555    
      9000   275.92831      975.25989      0              1770.6076      26.149723    
     10000   268.25903      979.94595      0              1753.1874      25.745189    
Loop time of 0.31901 on 4 procs for 10000 steps with 968 atoms

Performance: 2708.377 ns/day, 0.009 hours/ns, 31346.952 timesteps/s, 30.344 Matom-step/s
98.1% CPU use with 4 MPI tasks x 1 OpenMP threads

MPI task timing breakdown:
Section |  min time  |  avg time  |  max time  |%varavg| %total
---------------------------------------------------------------
Pair    | 0.21161    | 0.22151    | 0.23063    |   1.9 | 69.44
Neigh   | 0.011928   | 0.013015   | 0.014455   |   0.9 |  4.08
Comm    | 0.035632   | 0.044844   | 0.052332   |   3.2 | 14.06
Output  | 8.0876e-05 | 8.8296e-05 | 0.00010693 |   0.0 |  0.03
Modify  | 0.025209   | 0.030683   | 0.034765   |   2.1 |  9.62
Other   |            | 0.008872   |            |       |  2.78

Nlocal:            242 ave         250 max         233 min
Histogram: 1 1 0 0 0 0 0 0 0 2
Nghost:          543.5 ave         564 max         527 min
Histogram: 1 1 0 0 0 0 1 0 0 1
Neighs:        1435.75 ave        1570 max        1346 min
Histogram: 1 0 1 1 0 0 0 0 0 1

Total # of neighbors = 5743
Ave neighs/atom = 5.9328512
Neighbor list builds = 108
Dangerous builds = 0
Total wall time: 0:00:00
