LAMMPS (30 Mar 2026 - Development - patch_30Mar2026-1172-ga5699be614)
OMP_NUM_THREADS environment is not set. Defaulting to 1 thread.
  using 1 OpenMP thread(s) per MPI task
units           real
dimension       3
boundary        p p p
atom_style      atomic
#               ldd ntypes
newton          on
timestep        1.0

region my_box block  0.000000 53.2587274361 0.000000 53.2587274361 0.000000 480
create_box 1 my_box
Created orthogonal box = (0 0 0) to (53.258727 53.258727 480)
  1 by 1 by 1 MPI processor grid

create_atoms 1 random 968 13427890 my_box overlap 2
Created 968 atoms
  using lattice units in orthogonal box = (0 0 0) to (53.258727 53.258727 480)
  create_atoms CPU = 0.009 seconds

mass 1 32.042

velocity        all create 270 22345 dist gaussian

pair_style     hybrid/overlay ldd lj/cut 14.0
#pair_style     hybrid/overlay ldd table spline N

pair_coeff      1 1 lj/cut 1 1
# map atom type 1 to local-density species A (defined in the potential file)
pair_coeff      * * ldd basic.ldd A

neigh_modify    delay 5 every 1 check yes
neighbor        2.0 bin
thermo          1000

# The per-atom local-density data computed by pair style ldd is made available
# to the rest of LAMMPS through "fix pair".  The fields are local_density,
# grad_density, energy, grad_energy (one column per species), and total_energy.
# Here we pull the density and total LD energy of species A into a per-atom array
# f_lddout (column 1 = local_density of A, column 2 = total_energy).
# fix lddout all pair 1 ldd local_density 0 total_energy 0


# Converting lammps real units to gmx/bocs units
# Uncomment if want to use the print statements below
# variable STEP equal step
# variable TEMP equal temp
# variable VOL equal vol/1000.0
# variable PRESS equal press*1.01325

## Set various fixes
fix             1  all      nvt        temp       270  270 100.0 #iso 0.986 0.986 1000.0

run_style       verlet

# Printing various stats in gmx/bocs units
# fix             print_temp all print 500 "${STEP} ${TEMP}" file temp.dat screen no
# fix             print_vol all print 500 "${STEP} ${VOL}" file vol.dat screen no
# fix             print_press all print 500 "${STEP} ${PRESS}" file press.dat screen no
# fix           print_pv  all print 500 "${VOL} ${PRESS}" file PV.dat screen no

## Dump the per-atom local-density quantities (needs the "fix lddout" above).
# dump           2 all custom 1000 bocs_traj.lmp id x y z vx vy vz fx fy fz f_lddout[1] f_lddout[2]
# dump_modify   2 sort id
# dump_modify   2 colname f_lddout[1] lddens1
# dump_modify   2 colname f_lddout[2] lddttlnrg


# Write restart files to continue simulations
# restart 100000 state1.restart state2.restart

## Run for this many steps
run 10000

CITE-CITE-CITE-CITE-CITE-CITE-CITE-CITE-CITE-CITE-CITE-CITE-CITE

Your simulation uses code contributions which should be cited:

- pair ldd command: doi:10.1063/1.5128665

@Article{DeLyser1,
 author = {Michael R. DeLyser and W. G. Noid},
 title = {Analysis of local density potentials},
 journal = {The journal of chemical physics},
 year =    2019,
 volume =  151,
 pages =   {22:224106}
}

- pair ldd command gradient keyword: doi:10.1063/5.0075291

@Article{DeLyser2,
 author = {Michael R. DeLyser and W. G. Noid},
 title = {Coarse-grained models for local density gradients},
 journal = {The Journal of Chemical Physics},
 year =    2021,
 volume =  156,
 pages =   {034106}
}

CITE-CITE-CITE-CITE-CITE-CITE-CITE-CITE-CITE-CITE-CITE-CITE-CITE

Neighbor list info ...
  update: every = 1 steps, delay = 5 steps, check = yes
  max neighbors/atom: 2000, page size: 100000
  master list distance cutoff = 16
  ghost atom cutoff = 16
  binsize = 8, bins = 7 7 60
  2 neighbor lists, perpetual/occasional/extra = 2 0 0
  (1) pair ldd, perpetual
      attributes: half, newton on
      pair build: half/bin/atomonly/newton
      stencil: half/bin/3d
      bin: standard
  (2) pair lj/cut, perpetual
      attributes: half, newton on, cut 16
      pair build: half/bin/atomonly/newton
      stencil: half/bin/3d
      bin: standard
Per MPI rank memory allocation (min/avg/max) = 3.853 | 3.853 | 3.853 Mbytes
   Step          Temp          E_pair         E_mol          TotEng         Press     
         0   270            981.80184      0              1760.0615      26.091041    
      1000   281.011        980.26441      0              1790.2627      27.010886    
      2000   274.5133       978.2241       0              1769.4931      26.237586    
      3000   267.06765      978.80838      0              1748.6158      26.142274    
      4000   260.97282      976.45908      0              1728.6985      25.077507    
      5000   272.23224      976.9276       0              1761.6216      26.436399    
      6000   278.16523      979.02387      0              1780.8194      26.777408    
      7000   272.45297      979.20068      0              1764.5309      26.250026    
      8000   261.86789      979.03867      0              1733.858       25.115394    
      9000   263.75331      977.31336      0              1737.5673      25.358006    
     10000   276.6706       978.69369      0              1776.181       26.897176    
Loop time of 0.937538 on 1 procs for 10000 steps with 968 atoms

Performance: 921.562 ns/day, 0.026 hours/ns, 10666.232 timesteps/s, 10.325 Matom-step/s
99.6% CPU use with 1 MPI tasks x 1 OpenMP threads

MPI task timing breakdown:
Section |  min time  |  avg time  |  max time  |%varavg| %total
---------------------------------------------------------------
Pair    | 0.73399    | 0.73399    | 0.73399    |   0.0 | 78.29
Neigh   | 0.06769    | 0.06769    | 0.06769    |   0.0 |  7.22
Comm    | 0.038931   | 0.038931   | 0.038931   |   0.0 |  4.15
Output  | 0.00012148 | 0.00012148 | 0.00012148 |   0.0 |  0.01
Modify  | 0.082902   | 0.082902   | 0.082902   |   0.0 |  8.84
Other   |            | 0.0139     |            |       |  1.48

Nlocal:            968 ave         968 max         968 min
Histogram: 1 0 0 0 0 0 0 0 0 0
Nghost:           1719 ave        1719 max        1719 min
Histogram: 1 0 0 0 0 0 0 0 0 0
Neighs:           5909 ave        5909 max        5909 min
Histogram: 1 0 0 0 0 0 0 0 0 0

Total # of neighbors = 5909
Ave neighs/atom = 6.1043388
Neighbor list builds = 102
Dangerous builds = 0
Total wall time: 0:00:00
