LAMMPS (17 Apr 2024)
  using 1 OpenMP thread(s) per MPI task
WARNING: Atom style hybrid defines both, per-type and per-atom masses; both must be set, but only per-atom masses will be used (src/atom_vec_hybrid.cpp:132)
Reading data file ...
  orthogonal box = (-20 -20 -20) to (20 20 20)
  1 by 2 by 2 MPI processor grid
  reading atoms ...
  10 atoms
  reading velocities ...
  10 velocities
  scanning bonds ...
  1 = max bonds/atom
  10 ellipsoids
  orthogonal box = (-20 -20 -20) to (20 20 20)
  1 by 2 by 2 MPI processor grid
  reading bonds ...
  8 bonds
Finding 1-2 1-3 1-4 neighbors ...
  special bond factors lj:    0        0        0       
  special bond factors coul:  0        0        0       
     2 = max # of 1-2 neighbors
     2 = max # of 1-3 neighbors
     2 = max # of 1-4 neighbors
     4 = max # of special neighbors
  special bonds CPU = 0.001 seconds
  read_data CPU = 0.008 seconds
Setting atom values ...
  10 settings made for mass
10 atoms in group all
Reading oxdna potential (fene) file oxdna.lj with DATE: 2024-04-21
Finding 1-2 1-3 1-4 neighbors ...
  special bond factors lj:    0        1        1       
  special bond factors coul:  0        0        0       
     2 = max # of 1-2 neighbors
     2 = max # of 1-3 neighbors
     2 = max # of 1-4 neighbors
     4 = max # of special neighbors
  special bonds CPU = 0.000 seconds
Reading oxdna potential (excv) file oxdna.lj with DATE: 2024-04-21
Reading oxdna potential (stk) file oxdna.lj with DATE: 2024-04-21
Reading oxdna potential (hbond) file oxdna.lj with DATE: 2024-04-21
Reading oxdna potential (hbond) file oxdna.lj with DATE: 2024-04-21
Reading oxdna potential (hbond) file oxdna.lj with DATE: 2024-04-21
Reading oxdna potential (xstk) file oxdna.lj with DATE: 2024-04-21
Reading oxdna potential (coaxstk) file oxdna.lj with DATE: 2024-04-21
Generated 0 of 6 mixed pair_coeff terms from geometric mixing rule
Neighbor list info ...
  update: every = 1 steps, delay = 0 steps, check = yes
  max neighbors/atom: 2000, page size: 100000
  master list distance cutoff = 2.9560004
  ghost atom cutoff = 3.8
  binsize = 1.4780002, bins = 28 28 28
  4 neighbor lists, perpetual/occasional/extra = 4 0 0
  (1) pair oxdna/excv, perpetual
      attributes: half, newton on
      pair build: half/bin/newton
      stencil: half/bin/3d
      bin: standard
  (2) pair oxdna/hbond, perpetual, copy from (1)
      attributes: half, newton on
      pair build: copy
      stencil: none
      bin: none
  (3) pair oxdna/xstk, perpetual, copy from (1)
      attributes: half, newton on
      pair build: copy
      stencil: none
      bin: none
  (4) pair oxdna/coaxstk, perpetual, copy from (1)
      attributes: half, newton on
      pair build: copy
      stencil: none
      bin: none
Setting up Verlet run ...
  Unit style    : lj
  Current step  : 0
  Time step     : 1e-05
0  ekin = 1.10853632272819 |  erot = 2.81573649976629 | epot = -13.057621953437 | etot = -9.13334913094248
Per MPI rank memory allocation (min/avg/max) = 7.105 | 7.11 | 7.116 Mbytes
   Step          Temp          E_pair         E_mol          TotEng         Press          Volume    
         0   0.082113802   -1.3488546      0.043092397   -1.1949086     -4.6816211e-05  64000        
1000  ekin = 1.08024346604046 |  erot = 2.90873406534668 | epot = -13.1223266626202 | etot = -9.13334913123309
2000  ekin = 1.05028450914436 |  erot = 2.98006324808558 | epot = -13.1636968886591 | etot = -9.13334913142917
3000  ekin = 1.01964458529397 |  erot = 3.02592193798631 | epot = -13.1789156547658 | etot = -9.13334913148549
4000  ekin = 0.989515033089522 |  erot = 3.04428486059471 | epot = -13.1671490250723 | etot = -9.13334913138808
5000  ekin = 0.961283929687805 |  erot = 3.03510855539557 | epot = -13.1297416162282 | etot = -9.13334913114478
6000  ekin = 0.936412193404224 |  erot = 3.00022299571977 | epot = -13.0699843199583 | etot = -9.13334913083427
7000  ekin = 0.916233699107934 |  erot = 2.94277134440163 | epot = -12.9923541739966 | etot = -9.13334913048703
8000  ekin = 0.901760662506231 |  erot = 2.86671228744168 | epot = -12.9018220800865 | etot = -9.13334913013854
9000  ekin = 0.893571390067841 |  erot = 2.77649686780611 | epot = -12.8034173876806 | etot = -9.13334912980665
10000  ekin = 0.89180568505681 |  erot = 2.6768685500674 | epot = -12.7020233645916 | etot = -9.13334912946735
   10000   0.11793111    -1.2674127      0.034288999   -1.0739167     -1.3883882e-05  64000        
Loop time of 10.7087 on 4 procs for 1000000 steps with 10 atoms

Performance: 80681.753 tau/day, 93381.659 timesteps/s, 933.817 katom-step/s
99.8% CPU use with 4 MPI tasks x 1 OpenMP threads

MPI task timing breakdown:
Section |  min time  |  avg time  |  max time  |%varavg| %total
---------------------------------------------------------------
Pair    | 3.4032     | 4.2397     | 6.1061     |  53.2 | 39.59
Bond    | 0.12793    | 0.18606    | 0.24447    |  11.1 |  1.74
Neigh   | 0.007285   | 0.007333   | 0.007366   |   0.0 |  0.07
Comm    | 2.4191     | 4.544      | 5.5427     |  58.9 | 42.43
Output  | 0.058426   | 0.065905   | 0.08554    |   4.4 |  0.62
Modify  | 0.39789    | 0.48281    | 0.59308    |  12.1 |  4.51
Other   |            | 1.183      |            |       | 11.05

Nlocal:            2.5 ave           4 max           1 min
Histogram: 2 0 0 0 0 0 0 0 0 2
Nghost:            7.5 ave           9 max           6 min
Histogram: 2 0 0 0 0 0 0 0 0 2
Neighs:           9.25 ave          19 max           5 min
Histogram: 2 1 0 0 0 0 0 0 0 1

Total # of neighbors = 37
Ave neighs/atom = 3.7
Ave special neighs/atom = 3.6
Neighbor list builds = 1000
Dangerous builds = 0
System init for write_data ...
Generated 0 of 6 mixed pair_coeff terms from geometric mixing rule
Total wall time: 0:00:10
