LAMMPS (17 Apr 2024)
  using 1 OpenMP thread(s) per MPI task
WARNING: Atom style hybrid defines both, per-type and per-atom masses; both must be set, but only per-atom masses will be used (src/atom_vec_hybrid.cpp:132)
Reading data file ...
  orthogonal box = (-20 -20 -20) to (20 20 20)
  1 by 1 by 1 MPI processor grid
  reading atoms ...
  10 atoms
  reading velocities ...
  10 velocities
  scanning bonds ...
  1 = max bonds/atom
  10 ellipsoids
  orthogonal box = (-20 -20 -20) to (20 20 20)
  1 by 1 by 1 MPI processor grid
  reading bonds ...
  8 bonds
Finding 1-2 1-3 1-4 neighbors ...
  special bond factors lj:    0        0        0       
  special bond factors coul:  0        0        0       
     2 = max # of 1-2 neighbors
     2 = max # of 1-3 neighbors
     2 = max # of 1-4 neighbors
     4 = max # of special neighbors
  special bonds CPU = 0.000 seconds
  read_data CPU = 0.005 seconds
Setting atom values ...
  10 settings made for mass
10 atoms in group all
Reading oxdna potential (fene) file oxdna.lj with DATE: 2024-04-21
Finding 1-2 1-3 1-4 neighbors ...
  special bond factors lj:    0        1        1       
  special bond factors coul:  0        0        0       
     2 = max # of 1-2 neighbors
     2 = max # of 1-3 neighbors
     2 = max # of 1-4 neighbors
     4 = max # of special neighbors
  special bonds CPU = 0.000 seconds
Reading oxdna potential (excv) file oxdna.lj with DATE: 2024-04-21
Reading oxdna potential (stk) file oxdna.lj with DATE: 2024-04-21
Reading oxdna potential (hbond) file oxdna.lj with DATE: 2024-04-21
Reading oxdna potential (hbond) file oxdna.lj with DATE: 2024-04-21
Reading oxdna potential (hbond) file oxdna.lj with DATE: 2024-04-21
Reading oxdna potential (xstk) file oxdna.lj with DATE: 2024-04-21
Reading oxdna potential (coaxstk) file oxdna.lj with DATE: 2024-04-21
Generated 0 of 6 mixed pair_coeff terms from geometric mixing rule
Neighbor list info ...
  update: every = 1 steps, delay = 0 steps, check = yes
  max neighbors/atom: 2000, page size: 100000
  master list distance cutoff = 2.9560004
  ghost atom cutoff = 3.8
  binsize = 1.4780002, bins = 28 28 28
  4 neighbor lists, perpetual/occasional/extra = 4 0 0
  (1) pair oxdna/excv, perpetual
      attributes: half, newton on
      pair build: half/bin/newton
      stencil: half/bin/3d
      bin: standard
  (2) pair oxdna/hbond, perpetual, copy from (1)
      attributes: half, newton on
      pair build: copy
      stencil: none
      bin: none
  (3) pair oxdna/xstk, perpetual, copy from (1)
      attributes: half, newton on
      pair build: copy
      stencil: none
      bin: none
  (4) pair oxdna/coaxstk, perpetual, copy from (1)
      attributes: half, newton on
      pair build: copy
      stencil: none
      bin: none
Setting up Verlet run ...
  Unit style    : lj
  Current step  : 0
  Time step     : 1e-05
0  ekin = 1.10853632272819 |  erot = 2.81573649976629 | epot = -13.0576219534369 | etot = -9.13334913094246
Per MPI rank memory allocation (min/avg/max) = 7.196 | 7.196 | 7.196 Mbytes
   Step          Temp          E_pair         E_mol          TotEng         Press          Volume    
         0   0.082113802   -1.3488546      0.043092397   -1.1949086     -4.6816211e-05  64000        
1000  ekin = 1.08024346604046 |  erot = 2.90873406534668 | epot = -13.1223266626202 | etot = -9.13334913123308
2000  ekin = 1.05028450914437 |  erot = 2.98006324808558 | epot = -13.1636968886591 | etot = -9.13334913142915
3000  ekin = 1.01964458529397 |  erot = 3.02592193798632 | epot = -13.1789156547658 | etot = -9.13334913148547
4000  ekin = 0.989515033089539 |  erot = 3.04428486059471 | epot = -13.1671490250724 | etot = -9.13334913138813
5000  ekin = 0.961283929687833 |  erot = 3.03510855539557 | epot = -13.1297416162282 | etot = -9.1333491311448
6000  ekin = 0.936412193404256 |  erot = 3.00022299571975 | epot = -13.0699843199583 | etot = -9.13334913083425
7000  ekin = 0.916233699107968 |  erot = 2.9427713444016 | epot = -12.9923541739966 | etot = -9.13334913048708
8000  ekin = 0.901760662506268 |  erot = 2.86671228744164 | epot = -12.9018220800865 | etot = -9.13334913013854
9000  ekin = 0.893571390067878 |  erot = 2.77649686780604 | epot = -12.8034173876806 | etot = -9.13334912980663
10000  ekin = 0.891805685056846 |  erot = 2.67686855006733 | epot = -12.7020233645915 | etot = -9.13334912946735
   10000   0.11793111    -1.2674127      0.034288999   -1.0739167     -1.3883882e-05  64000        
Loop time of 9.89878 on 1 procs for 1000000 steps with 10 atoms

Performance: 87283.501 tau/day, 101022.571 timesteps/s, 1.010 Matom-step/s
99.7% CPU use with 1 MPI tasks x 1 OpenMP threads

MPI task timing breakdown:
Section |  min time  |  avg time  |  max time  |%varavg| %total
---------------------------------------------------------------
Pair    | 7.6716     | 7.6716     | 7.6716     |   0.0 | 77.50
Bond    | 0.40131    | 0.40131    | 0.40131    |   0.0 |  4.05
Neigh   | 0.012519   | 0.012519   | 0.012519   |   0.0 |  0.13
Comm    | 0.26996    | 0.26996    | 0.26996    |   0.0 |  2.73
Output  | 0.11986    | 0.11986    | 0.11986    |   0.0 |  1.21
Modify  | 1.1336     | 1.1336     | 1.1336     |   0.0 | 11.45
Other   |            | 0.2899     |            |       |  2.93

Nlocal:             10 ave          10 max          10 min
Histogram: 1 0 0 0 0 0 0 0 0 0
Nghost:              0 ave           0 max           0 min
Histogram: 1 0 0 0 0 0 0 0 0 0
Neighs:             37 ave          37 max          37 min
Histogram: 1 0 0 0 0 0 0 0 0 0

Total # of neighbors = 37
Ave neighs/atom = 3.7
Ave special neighs/atom = 3.6
Neighbor list builds = 1000
Dangerous builds = 0
System init for write_data ...
Generated 0 of 6 mixed pair_coeff terms from geometric mixing rule
Total wall time: 0:00:09
