LAMMPS (2 Jul 2021)
variable number	equal 1
variable ofreq	equal 1000
variable efreq	equal 1000
variable T      equal 0.1

units lj

dimension 3

newton on

boundary  p p p

atom_style hybrid bond ellipsoid oxdna
WARNING: Atom style hybrid defines both, per-type and per-atom masses; both must be set, but only per-atom masses will be used (../atom_vec_hybrid.cpp:157)
atom_modify sort 0 1.0

# Pair interactions require lists of neighbours to be calculated
neighbor 2.0 bin
neigh_modify every 1 delay 0 check yes

read_data data.duplex1
Reading data file ...
  orthogonal box = (-20.000000 -20.000000 -20.000000) to (20.000000 20.000000 20.000000)
  1 by 2 by 2 MPI processor grid
  reading atoms ...
  10 atoms
  reading velocities ...
  10 velocities
  scanning bonds ...
  1 = max bonds/atom
  10 ellipsoids
  reading bonds ...
  8 bonds
Finding 1-2 1-3 1-4 neighbors ...
  special bond factors lj:    0        0        0       
  special bond factors coul:  0        0        0       
     2 = max # of 1-2 neighbors
     2 = max # of 1-3 neighbors
     2 = max # of 1-4 neighbors
     4 = max # of special neighbors
  special bonds CPU = 0.001 seconds
  read_data CPU = 0.005 seconds

set atom * mass 3.1575
Setting atom values ...
  10 settings made for mass

group all type 1 4
10 atoms in group all

# oxDNA bond interactions - FENE backbone
bond_style oxdna/fene
bond_coeff * 2.0 0.25 0.7525
special_bonds lj 0 1 1
Finding 1-2 1-3 1-4 neighbors ...
  special bond factors lj:    0        1        1       
  special bond factors coul:  0        0        0       
     2 = max # of 1-2 neighbors
     2 = max # of 1-3 neighbors
     2 = max # of 1-4 neighbors
     4 = max # of special neighbors
  special bonds CPU = 0.000 seconds

# oxDNA pair interactions
pair_style hybrid/overlay oxdna/excv oxdna/stk oxdna/hbond oxdna/xstk oxdna/coaxstk
pair_coeff * * oxdna/excv    2.0 0.7 0.675 2.0 0.515 0.5 2.0 0.33 0.32
pair_coeff * * oxdna/stk     seqav ${T} 1.3448 2.6568 6.0 0.4 0.9 0.32 0.75 1.3 0 0.8 0.9 0 0.95 0.9 0 0.95 2.0 0.65 2.0 0.65
pair_coeff * * oxdna/stk     seqav 0.1 1.3448 2.6568 6.0 0.4 0.9 0.32 0.75 1.3 0 0.8 0.9 0 0.95 0.9 0 0.95 2.0 0.65 2.0 0.65
pair_coeff * * oxdna/hbond   seqav 0.0   8.0 0.4 0.75 0.34 0.7 1.5 0 0.7 1.5 0 0.7 1.5 0 0.7 0.46 3.141592653589793 0.7 4.0 1.5707963267948966 0.45 4.0 1.5707963267948966 0.45
pair_coeff 1 4 oxdna/hbond   seqav 1.077 8.0 0.4 0.75 0.34 0.7 1.5 0 0.7 1.5 0 0.7 1.5 0 0.7 0.46 3.141592653589793 0.7 4.0 1.5707963267948966 0.45 4.0 1.5707963267948966 0.45
pair_coeff 2 3 oxdna/hbond   seqav 1.077 8.0 0.4 0.75 0.34 0.7 1.5 0 0.7 1.5 0 0.7 1.5 0 0.7 0.46 3.141592653589793 0.7 4.0 1.5707963267948966 0.45 4.0 1.5707963267948966 0.45
pair_coeff * * oxdna/xstk    47.5 0.575 0.675 0.495 0.655 2.25 0.791592653589793 0.58 1.7 1.0 0.68 1.7 1.0 0.68 1.5 0 0.65 1.7 0.875 0.68 1.7 0.875 0.68
pair_coeff * * oxdna/coaxstk 46.0 0.4 0.6 0.22 0.58 2.0 2.541592653589793 0.65 1.3 0 0.8 0.9 0 0.95 0.9 0 0.95 2.0 -0.65 2.0 -0.65

# NVE ensemble
fix 1 all nve/asphere
#fix 2 all langevin ${T} ${T} 2.5 457145 angmom 10

timestep 1e-5

#comm_style tiled
fix 3 all balance 1000 1.03 shift xyz 10 1.03
comm_modify cutoff 3.8

compute quat all property/atom quatw quati quatj quatk

compute erot all erotate/asphere
compute ekin all ke
compute epot all pe
variable erot equal c_erot
variable ekin equal c_ekin
variable epot equal c_epot
variable etot equal c_erot+c_ekin+c_epot
fix 5 all print ${efreq} "$(step)  ekin = ${ekin} |  erot = ${erot} | epot = ${epot} | etot = ${etot}" screen yes
fix 5 all print 1000 "$(step)  ekin = ${ekin} |  erot = ${erot} | epot = ${epot} | etot = ${etot}" screen yes

dump out all custom ${ofreq} out.${number}.lammpstrj id mol type x y z ix iy iz vx vy vz c_quat[1] c_quat[2] c_quat[3] c_quat[4] angmomx angmomy angmomz
dump out all custom 1000 out.${number}.lammpstrj id mol type x y z ix iy iz vx vy vz c_quat[1] c_quat[2] c_quat[3] c_quat[4] angmomx angmomy angmomz
dump out all custom 1000 out.1.lammpstrj id mol type x y z ix iy iz vx vy vz c_quat[1] c_quat[2] c_quat[3] c_quat[4] angmomx angmomy angmomz
dump_modify out sort id
dump_modify out format line "%d %d %d  %22.15le %22.15le %22.15le  %d %d %d  %22.15le %22.15le %22.15le  %22.15le %22.15le %22.15le %22.15le  %22.15le %22.15le %22.15le"

run 1000000
Neighbor list info ...
  update every 1 steps, delay 0 steps, check yes
  max neighbors/atom: 2000, page size: 100000
  master list distance cutoff = 2.9560004
  ghost atom cutoff = 3.8
  binsize = 1.4780002, bins = 28 28 28
  4 neighbor lists, perpetual/occasional/extra = 4 0 0
  (1) pair oxdna/excv, perpetual
      attributes: half, newton on
      pair build: half/bin/newton
      stencil: half/bin/3d
      bin: standard
  (2) pair oxdna/hbond, perpetual, copy from (1)
      attributes: half, newton on
      pair build: copy
      stencil: none
      bin: none
  (3) pair oxdna/xstk, perpetual, copy from (1)
      attributes: half, newton on
      pair build: copy
      stencil: none
      bin: none
  (4) pair oxdna/coaxstk, perpetual, copy from (1)
      attributes: half, newton on
      pair build: copy
      stencil: none
      bin: none
0  ekin = 1.10853632272819 |  erot = 2.81573649976629 | epot = -13.057621953437 | etot = -9.13334913094248
Per MPI rank memory allocation (min/avg/max) = 8.855 | 8.861 | 8.867 Mbytes
Step Temp E_pair E_mol TotEng Press Volume 
       0  0.082113802   -1.3488546  0.043092397   -1.1949086 -4.6816211e-05        64000 
1000  ekin = 1.08024346604046 |  erot = 2.90873406534668 | epot = -13.1223266626202 | etot = -9.13334913123309
2000  ekin = 1.05028450914436 |  erot = 2.98006324808558 | epot = -13.1636968886591 | etot = -9.13334913142917
3000  ekin = 1.01964458529397 |  erot = 3.02592193798631 | epot = -13.1789156547658 | etot = -9.13334913148549
4000  ekin = 0.989515033089522 |  erot = 3.04428486059471 | epot = -13.1671490250723 | etot = -9.13334913138808
5000  ekin = 0.961283929687805 |  erot = 3.03510855539557 | epot = -13.1297416162282 | etot = -9.13334913114478
6000  ekin = 0.936412193404224 |  erot = 3.00022299571977 | epot = -13.0699843199583 | etot = -9.13334913083427
7000  ekin = 0.916233699107934 |  erot = 2.94277134440163 | epot = -12.9923541739966 | etot = -9.13334913048703
8000  ekin = 0.901760662506231 |  erot = 2.86671228744168 | epot = -12.9018220800865 | etot = -9.13334913013854
9000  ekin = 0.893571390067841 |  erot = 2.77649686780611 | epot = -12.8034173876806 | etot = -9.13334912980665
10000  ekin = 0.89180568505681 |  erot = 2.6768685500674 | epot = -12.7020233645916 | etot = -9.13334912946735
 10000   0.11793111   -1.2674127  0.034288999   -1.0739167 -1.3883882e-05        64000 
Loop time of 12.7173 on 4 procs for 1000000 steps with 10 atoms

Performance: 67939.084 tau/day, 78633.199 timesteps/s
99.6% CPU use with 4 MPI tasks x no OpenMP threads

MPI task timing breakdown:
Section |  min time  |  avg time  |  max time  |%varavg| %total
---------------------------------------------------------------
Pair    | 2.8787     | 4.0355     | 6.8248     |  81.1 | 31.73
Bond    | 0.17702    | 0.24819    | 0.33387    |  12.1 |  1.95
Neigh   | 0.011662   | 0.011722   | 0.011792   |   0.0 |  0.09
Comm    | 3.0536     | 6.1653     | 7.5423     |  73.5 | 48.48
Output  | 0.074083   | 0.07729    | 0.082929   |   1.2 |  0.61
Modify  | 0.52866    | 0.63564    | 0.74059    |  12.0 |  5.00
Other   |            | 1.544      |            |       | 12.14

Nlocal:        2.50000 ave           4 max           1 min
Histogram: 2 0 0 0 0 0 0 0 0 2
Nghost:        7.50000 ave           9 max           6 min
Histogram: 2 0 0 0 0 0 0 0 0 2
Neighs:        9.25000 ave          19 max           5 min
Histogram: 2 1 0 0 0 0 0 0 0 1

Total # of neighbors = 37
Ave neighs/atom = 3.7000000
Ave special neighs/atom = 3.6000000
Neighbor list builds = 1000
Dangerous builds = 0

write_data last_config.${number}.* nocoeff
write_data last_config.1.* nocoeff
System init for write_data ...
#write_restart last_config.${number}.*
Total wall time: 0:00:12
