   1    1        0.323253500       8.084050718       1.702616071
   1    2        0.360664373       4.235314719       1.042683930
   1    3        0.260389892       6.170949887       1.272400043
   1    4        0.330132439       3.278939136       0.828179347
   1    5        0.185972580       3.725502262       0.734989482
   1    6        0.277947516       2.055868864       0.561342452
   1    7        0.118796875       2.060868312       0.384857989
   1    8        0.231436958       1.236210246       0.385811856
   1    9        0.206471613       0.906744732       0.341979489
   1   10        0.158790100       2.587251689       0.462472629
   1   11        0.110816527       0.539968749       0.259280709
   1   12        0.069337635       1.638772243       0.265474748
   1   13        0.043185324       0.337592289       0.182941454
   1   14        0.010354877       0.869677075       0.143470195
   1   15        0.002782479       0.260905217       0.077284344
   1   16        0.000051693       0.337673024       0.047413678
   1   17        0.000367854       1.272167935       0.047857768
   1   18        0.004223079       1.453250930       0.076712994
   1   19        0.000116221       0.416727692       0.026175232
   1   20        0.001761348       3.360761018       0.126556701
   1   21        0.046972760       3.994387329       0.255458626
   1   22        0.000509130       0.841326965       0.030280846
   1   23        0.000069858       0.586143645       0.021746651
   1   24        0.000478186       0.698391014       0.039486558
   1   25        0.000018575       0.217039046       0.017769218
   1   26        0.001503376       2.674736830       0.100445585
   1   27        0.043256998       3.239394874       0.218232190
   1   28        0.000235112       0.640992520       0.021874832
   1   29        0.000005331       0.245184622       0.008924583
   1   30        0.000013809       0.309690442       0.021596062
   1   31        0.000000846       0.108442934       0.012668768
   1   32        0.001180036       1.896332721       0.070773276
   1   33        0.032814392       2.399147807       0.174090644
   1   34        0.000152268       0.425468211       0.013365173
   1   35        0.000000131       0.105743858       0.003917730
   1   36        0.000000323       0.139914105       0.012534114
   1   37        0.000000005       0.064359433       0.009691646
   1   38        0.000781313       1.164144189       0.043387334
   1   39        0.017741263       1.608397685       0.127192802
   1   40        0.000045578       0.239009898       0.006400343
   1   41        0.000000000       0.055396391       0.001876732
   1   42        0.000000001       0.061458140       0.007075940
   1   43        0.000000000       0.049527354       0.007431371
   1   44        0.000455970       0.610556857       0.023111302
   1   45        0.006524857       0.965675720       0.084009793
   1   46        0.000003883       0.112365660       0.002348721
   1   47        0.000000000       0.041888990       0.000979893
   1   48        0.000000000       0.031893472       0.003716054
   1   49        0.000000000       0.045112870       0.005414628
   1   50        0.000193298       0.276621635       0.010839794
   1   51        0.001843829       0.518431175       0.050574997
   1   52        0.000000116       0.050467261       0.000806563
   1   53        0.000000726       0.079757101       0.001695900
   1   54        0.000002620       0.214792018       0.004624420
   1   55        0.000000153       0.032227237       0.000682498
   1   56        0.000002098       0.167892084       0.003611018
   1   57        0.000000013       0.011271364       0.000226283
   1   58        0.000001504       0.111773409       0.002422534
   1   59        0.000000000       0.004206824       0.000084102
   1   60        0.000000793       0.059186257       0.001342955
   1   61        0.000000000       0.002533388       0.000037436
   1   62        0.000000430       0.024883993       0.000612073
   1   63        0.000000000       0.002141182       0.000019845
   1   64        0.000000249       0.009221856       0.000235933
   1   65        0.000000171       0.041935470       0.001757488
   1   66        0.000000558       0.050781432       0.000821210
   1   67        0.000000023       0.026031170       0.001477691
   1   68        0.000000236       0.035000586       0.000541413
   1   69        0.000000001       0.016686889       0.001262702
   1   70        0.000000117       0.019534983       0.000300040
   1   71        0.000000000       0.013817963       0.001080656
   1   72        0.000000025       0.008836054       0.000124822
   1   73        0.000000000       0.013390331       0.000883283
   1   74        0.000000004       0.003921142       0.000039290
   1   75        0.000000000       0.013248027       0.000670084
   1   76        0.000000000       0.003311327       0.000013713
   1   77        0.000575030       0.071033954       0.003969080
   1   78        0.006460376       0.228154636       0.025767488
   1   79        0.000034582       0.031739317       0.001125065
   1   80        0.005339742       0.188859999       0.022923473
   1   81        0.000000283       0.012732944       0.000485623
   1   82        0.003739985       0.144168675       0.018540823
   1   83        0.000000000       0.006639503       0.000283780
   1   84        0.002052044       0.097976075       0.012625270
   1   85        0.000000000       0.005186677       0.000157467
   1   86        0.000517401       0.053886206       0.006461886
   1   87        0.000000000       0.004406410       0.000077965
   1   88        0.000039230       0.022374190       0.002343505
   2    1        0.797811056       8.470628646       2.085367860
   2    2        0.086611468       3.859025482       0.687664184
   2    3        0.709617823       6.557877414       1.656358694
   2    4        0.051560656       2.903817522       0.478777453
   2    5        0.591680654       4.111096165       1.122684904
   2    6        0.016983870       1.682600738       0.228302750
   2    7        0.491191784       2.443755581       0.771623711
   2    8        0.002442226       0.854840759       0.083790553
   2    9        0.467451283       1.773047372       0.683958978
   2   10        0.009754135       2.635336650       0.359228506
   2   11        0.299524892       1.040876679       0.518561417
   2   12        0.000827041       2.325944694       0.239129129
   2   13        0.152808548       0.715276329       0.365882908
   2   14        0.000007624       2.132707160       0.131517917
   2   15        0.009237034       0.432700303       0.154568688
   2   16        0.000000000       1.890878762       0.038194238
   2   17        0.029113310       1.657557675       0.133453492
   2   18        0.000959810       1.271870266       0.047093472
   2   19        0.000004295       0.243987823       0.004378078
   2   20        0.020061414       3.790081155       0.198718127
   2   21        0.007272929       3.741103112       0.178730840
   2   22        0.000021987       0.662431895       0.012286728
   2   23        0.014001144       0.829376663       0.078005525
   2   24        0.000379690       0.589182903       0.023282721
   2   25        0.000000662       0.102862008       0.001579985
   2   26        0.009204378       2.961900526       0.143270159
   2   27        0.006592169       3.058415974       0.154920089
   2   28        0.000013734       0.521306080       0.009488635
   2   29        0.003335832       0.373223779       0.035965302
   2   30        0.000060825       0.248312143       0.009781207
   2   31        0.000000014       0.038095958       0.000406042
   2   32        0.004011567       2.071669336       0.097011935
   2   33        0.005691542       2.284936490       0.129694256
   2   34        0.000007372       0.355571881       0.006108652
   2   35        0.000205718       0.164595129       0.012635336
   2   36        0.000002091       0.109372837       0.003572240
   2   37        0.000000000       0.014543839       0.000095506
   2   38        0.001862571       1.264105958       0.063703017
   2   39        0.004665205       1.555955831       0.106205023
   2   40        0.000003342       0.199316686       0.002989995
   2   41        0.000001579       0.074330161       0.004306212
   2   42        0.000000026       0.060549904       0.001387482
   2   43        0.000000000       0.007447320       0.000031769
   2   44        0.001023456       0.665665644       0.039221570
   2   45        0.003643122       0.985041336       0.085166276
   2   46        0.000000781       0.090187962       0.001014822
   2   47        0.000000001       0.036182397       0.001732061
   2   48        0.000000000       0.044656714       0.000717570
   2   49        0.000000000       0.006372333       0.000023345
   2   50        0.000524427       0.302561623       0.021916663
   2   51        0.002700856       0.589870339       0.065245450
   2   52        0.000000045       0.034661076       0.000244468
   2   53        0.000001073       0.135353800       0.001965285
   2   54        0.000005465       0.370910153       0.005540320
   2   55        0.000000151       0.055247964       0.000695647
   2   56        0.000003272       0.290704948       0.004270682
   2   57        0.000000004       0.019571993       0.000172646
   2   58        0.000001667       0.195353467       0.002727288
   2   59        0.000000000       0.007215135       0.000039921
   2   60        0.000000770       0.105727560       0.001306656
   2   61        0.000000186       0.045418812       0.000427863
   2   62        0.000000010       0.016762054       0.000100500
   2   63        0.000002142       0.072356307       0.001254771
   2   64        0.000022168       0.279702565       0.009060021
   2   65        0.000000666       0.029816787       0.000593381
   2   66        0.000019996       0.237139366       0.008398630
   2   67        0.000000108       0.010937588       0.000237065
   2   68        0.000017548       0.186347798       0.007666334
   2   69        0.000000004       0.004593784       0.000076654
   2   70        0.000014986       0.137144943       0.006906473
   2   71        0.000000000       0.002908282       0.000027551
   2   72        0.000011614       0.098008666       0.006073509
   2   73        0.000000000       0.002620567       0.000016318
   2   74        0.000006937       0.069079370       0.005095707
   2   75        0.004318581       0.113836064       0.017261540
   2   76        0.002827059       0.185073936       0.012475028
   2   77        0.002771818       0.062030050       0.010872676
   2   78        0.000683869       0.131864132       0.006086164
   2   79        0.000497849       0.026387161       0.004664737
   2   80        0.000058688       0.081945888       0.002398327
   2   81        0.000024706       0.009687085       0.001091038
   2   82        0.000002604       0.041925192       0.001223669
   2   83        0.000000028       0.004363057       0.000176799
   2   84        0.000000445       0.017896020       0.000749540
   2   85        0.000000000       0.003935750       0.000049094
   2   86        0.000000188       0.007468628       0.000434620
       -0.1322145457       -0.0890857957
