LAMMPS data file in real units via oxdna lj2real.py, date 2026-03-03

10 atoms
4 atom types
8 bonds
1 bond types
10 ellipsoids

-170 170 xlo xhi
-170 170 ylo yhi
-170 170 zlo zhi

Masses

1 315.75
2 315.75
3 315.75
4 315.75

Atoms # hybrid

1 1 -2.8740969069282687 -3.723118600434732 5.494693518792015 1 1 1.001368291519964 0 0 0
2 2 -2.7379071878387986 -6.079929519421481 10.066032484018534 1 1 1.001368291519964 0 0 0
3 3 -1.110437385073819 -7.791537941948432 13.848676172779387 1 1 1.001368291519964 0 0 0
4 4 1.4306089998272526 -8.354886654263622 17.79828313773629 1 1 1.001368291519964 0 0 0
5 1 3.9498326729322186 -6.646891787969407 20.657842369456382 1 1 1.001368291519964 0 0 0
6 4 -3.801540967989063 0.7719150486872158 21.01300417274477 2 1 1.001368291519964 0 0 0
7 1 -0.287657468030243 1.787063409177335 17.702181979507532 2 1 1.001368291519964 0 0 0
8 2 2.8086617684512323 1.5040732709582532 14.656350509768911 2 1 1.001368291519964 0 0 0
9 3 5.165059071666839 0.3988634556159852 10.50699529001116 2 1 1.001368291519964 0 0 0
10 4 6.817789789050184 -3.1038996716078557 8.419212766646357 2 1 1.001368291519964 0 0 0

Velocities

1 0.0015997924897712403 -0.0006808685762341532 -0.00014682493781537886 1.3034832709888367 -0.6725238239845002 1.5263132280023934
2 0.0008424742243538333 -0.00024725984594529493 0.0007896547617505767 -0.32614989925563226 -0.003435108649658479 -0.9136190179212114
3 -0.0011449293064044479 0.00041861905225981855 -0.00045939539327805897 1.7184261410138102 2.6050911563344865 -0.4706577990475397
4 -0.0011080534945956983 0.00024736032632952136 -0.000346428142384782 -0.5778226573068588 1.7520792566886334 -0.2404855624061971
5 0.0004073595485113002 -0.0012808446842407875 0.0008612953526344146 0.23142264107919455 0.39727534973029205 1.3636367646179264
6 0.00017973107461934575 -0.00024315636801748594 0.0001428432542910467 0.17049499676442015 -1.3525868773905243 1.5501373823153435
7 -4.109683781342171e-05 0.00023730551987217574 -0.00013847499291404092 0.7809130767496854 -2.1218674099059736 0.2975078119658224
8 -0.0003584508394113376 0.0008581630610982334 0.0019505952524467415 -0.7116538240808703 -2.0351849528970423 -0.7613803004419455
9 -0.0008733289243678387 -0.0003903763275431574 0.00027977347194734175 -1.19383078872135 1.0232977853483114 -1.834229412283104
10 0.0009424470184706855 -0.0005327857976334543 0.0006298185759812235 -0.24420654075615122 1.5633596914612744 0.6376054280399424

Bonds

1 1 1 2
2 1 2 3
3 1 3 4
4 1 4 5
5 1 6 7
6 1 7 8
7 1 8 9
8 1 9 10

Ellipsoids

1 9.999999997766462 9.999999997766462 9.999999997766462 0.9890278201757743 0.01779228232037064 -0.14337734159225404 0.030827642240801516
2 9.999999997766462 9.999999997766462 9.999999997766462 0.939687458852748 0.04174166924055095 -0.023337773785056866 0.338674565089608
3 9.999999997766462 9.999999997766462 9.999999997766462 0.8210113150655425 0.03012140921736572 0.017666019956944813 0.5698429897612057
4 9.999999997766462 9.999999997766462 9.999999997766462 0.6623662858285051 -0.028186343967346823 0.022942552517501488 0.7482981175276918
5 9.999999997766462 9.999999997766462 9.999999997766462 0.3601488726765216 0.0513614985821682 0.0724224158335286 0.9286602067807472
6 9.999999997766462 9.999999997766462 9.999999997766462 0.11941234710084649 0.9244660117493703 -0.35317942248051865 -0.07979711784524246
7 9.999999997766462 9.999999997766462 9.999999997766462 -0.17949125421205164 0.7412884899431119 -0.6379094464220707 0.1065166771202199
8 9.999999997766462 9.999999997766462 9.999999997766462 -0.10483691088405202 0.5508895999584645 -0.8250090480220789 0.06992811634525403
9 9.999999997766462 9.999999997766462 9.999999997766462 0.07777239911646 -0.3724087549185288 0.9103052384821374 -0.1631181963720798
10 9.999999997766462 9.999999997766462 9.999999997766462 0.16279109707978262 0.027148630125149613 0.9849325709665359 -0.0516705065113425
