LAMMPS (17 Apr 2024 - Development - patch_17Apr2024-174-g749e259294-modified)
# LAMMPS input file in real units via oxdna lj2real.py, date 2024-05-19
variable number	equal 1
variable ofreq	equal 1000
variable efreq	equal 1000
variable T      equal 300.0

units real

dimension 3

newton on

boundary  p p p

atom_style hybrid bond ellipsoid oxdna
WARNING: Atom style hybrid defines both, per-type and per-atom masses; both must be set, but only per-atom masses will be used (../atom_vec_hybrid.cpp:132)
atom_modify sort 0 8.518

# Pair interactions require lists of neighbours to be calculated
neighbor 17.036 bin
neigh_modify every 1 delay 0 check yes

read_data data.duplex1
Reading data file ...
  orthogonal box = (-170 -170 -170) to (170 170 170)
  1 by 2 by 2 MPI processor grid
  reading atoms ...
  10 atoms
  reading velocities ...
  10 velocities
  scanning bonds ...
  1 = max bonds/atom
  10 ellipsoids
  orthogonal box = (-170 -170 -170) to (170 170 170)
  1 by 2 by 2 MPI processor grid
  reading bonds ...
  8 bonds
Finding 1-2 1-3 1-4 neighbors ...
  special bond factors lj:    0        0        0       
  special bond factors coul:  0        0        0       
     2 = max # of 1-2 neighbors
     2 = max # of 1-3 neighbors
     2 = max # of 1-4 neighbors
     4 = max # of special neighbors
  special bonds CPU = 0.000 seconds
  read_data CPU = 0.011 seconds

set atom * mass 315.8376
Setting atom values ...
  10 settings made for mass

group all type 1 4
10 atoms in group all

# oxDNA bond interactions - FENE backbone
bond_style oxdna/fene
bond_coeff * 11.92337812042065 2.1295 6.409795
special_bonds lj 0 1 1
Finding 1-2 1-3 1-4 neighbors ...
  special bond factors lj:    0        1        1       
  special bond factors coul:  0        0        0       
     2 = max # of 1-2 neighbors
     2 = max # of 1-3 neighbors
     2 = max # of 1-4 neighbors
     4 = max # of special neighbors
  special bonds CPU = 0.000 seconds

# oxDNA pair interactions
pair_style hybrid/overlay oxdna/excv oxdna/stk oxdna/hbond oxdna/xstk oxdna/coaxstk
pair_coeff * * oxdna/excv 11.92337812042065 5.9626 5.74965 11.92337812042065 4.38677 4.259 11.92337812042065 2.81094 2.72576
pair_coeff * * oxdna/stk seqav ${T} 8.01727944817084 0.005279604 0.70439070204273 3.4072 7.6662 2.72576 6.3885 1.3 0.0 0.8 0.9 0.0 0.95 0.9 0.0 0.95 2.0 0.65 2.0 0.65
pair_coeff * * oxdna/stk seqav 300 8.01727944817084 0.005279604 0.70439070204273 3.4072 7.6662 2.72576 6.3885 1.3 0.0 0.8 0.9 0.0 0.95 0.9 0.0 0.95 2.0 0.65 2.0 0.65
pair_coeff * * oxdna/hbond seqav 0.0 0.93918760272364 3.4072 6.3885 2.89612 5.9626 1.5 0.0 0.7 1.5 0 0.7 1.5 0 0.7 0.46 3.141592654 0.7 4.0 1.570796327 0.45 4.0 1.570796327 0.45
pair_coeff 1 4 oxdna/hbond seqav 6.42073911784652 0.93918760272364 3.4072 6.3885 2.89612 5.9626 1.5 0 0.7 1.5 0.0 0.7 1.5 0 0.7 0.46 3.141592654 0.7 4.0 1.570796327 0.45 4.0 1.570796327 0.45
pair_coeff 2 3 oxdna/hbond seqav 6.42073911784652 0.93918760272364 3.4072 6.3885 2.89612 5.9626 1.5 0 0.7 1.5 0.0 0.7 1.5 0 0.7 0.46 3.141592654 0.7 4.0 1.570796327 0.45 4.0 1.570796327 0.45
pair_coeff * * oxdna/xstk 3.9029021145006 4.89785 5.74965 4.21641 5.57929 2.25 0.791592654 0.58 1.7 1.0 0.68 1.7 1.0 0.68 1.5 0 0.65 1.7 0.875 0.68 1.7 0.875 0.68
pair_coeff * * oxdna/coaxstk 3.77965257404268 3.4072 5.1108 1.87396 4.94044 2.0 2.541592654 0.65 1.3 0 0.8 0.9 0 0.95 0.9 0 0.95 2 -0.65 2 -0.65

# NVE ensemble
fix 1 all nve/asphere
#fix 2 all langevin ${T} ${T} 4265.0 457145 angmom 10

timestep 0.01706

#comm_style tiled
fix 3 all balance 1000 1.03 shift xyz 10 1.03
comm_modify cutoff 32.4

compute quat all property/atom quatw quati quatj quatk

compute erot all erotate/asphere
compute ekin all ke
compute epot all pe
variable erot equal c_erot
variable ekin equal c_ekin
variable epot equal c_epot
variable etot equal c_erot+c_ekin+c_epot
fix 5 all print ${efreq} "$(step)  ekin = ${ekin} |  erot = ${erot} | epot = ${epot} | etot = ${etot}" screen yes
fix 5 all print 1000 "$(step)  ekin = ${ekin} |  erot = ${erot} | epot = ${epot} | etot = ${etot}" screen yes

dump out all custom ${ofreq} out.${number}.lammpstrj id mol type x y z ix iy iz vx vy vz c_quat[1] c_quat[2] c_quat[3] c_quat[4] angmomx angmomy angmomz
dump out all custom 1000 out.${number}.lammpstrj id mol type x y z ix iy iz vx vy vz c_quat[1] c_quat[2] c_quat[3] c_quat[4] angmomx angmomy angmomz
dump out all custom 1000 out.1.lammpstrj id mol type x y z ix iy iz vx vy vz c_quat[1] c_quat[2] c_quat[3] c_quat[4] angmomx angmomy angmomz
dump_modify out sort id
dump_modify out format line "%d %d %d  %22.15le %22.15le %22.15le  %d %d %d  %22.15le %22.15le %22.15le  %22.15le %22.15le %22.15le %22.15le  %22.15le %22.15le %22.15le"

run 1000000
Generated 0 of 6 mixed pair_coeff terms from geometric mixing rule
Neighbor list info ...
  update: every = 1 steps, delay = 0 steps, check = yes
  max neighbors/atom: 2000, page size: 100000
  master list distance cutoff = 25.179212
  ghost atom cutoff = 32.4
  binsize = 12.589606, bins = 28 28 28
  4 neighbor lists, perpetual/occasional/extra = 4 0 0
  (1) pair oxdna/excv, perpetual
      attributes: half, newton on
      pair build: half/bin/newton
      stencil: half/bin/3d
      bin: standard
  (2) pair oxdna/hbond, perpetual, copy from (1)
      attributes: half, newton on
      pair build: copy
      stencil: none
      bin: none
  (3) pair oxdna/xstk, perpetual, copy from (1)
      attributes: half, newton on
      pair build: copy
      stencil: none
      bin: none
  (4) pair oxdna/coaxstk, perpetual, copy from (1)
      attributes: half, newton on
      pair build: copy
      stencil: none
      bin: none
0  ekin = 6.60687273927977 |  erot = 16.7817849122513 | epot = -77.8453746587951 | etot = -54.456717007264
Per MPI rank memory allocation (min/avg/max) = 7.105 | 7.11 | 7.116 Mbytes
   Step          Temp          E_pair         E_mol          TotEng         Press          Volume    
         0   246.27432     -80.414409      2.5690347     -71.238502     -0.031164646    39304000     
1000  ekin = 6.43820783118129 |  erot = 17.3362198819252 | epot = -78.2311447221034 | etot = -54.4567170089969
2000  ekin = 6.25962757371404 |  erot = 17.7614951323062 | epot = -78.4778397161865 | etot = -54.4567170101663
3000  ekin = 6.07700556573592 |  erot = 18.0349356633584 | epot = -78.5686582395969 | etot = -54.4567170105026
4000  ekin = 5.8974439552513 |  erot = 18.144460931621 | epot = -78.498621896795 | etot = -54.4567170099227
5000  ekin = 5.72921700410324 |  erot = 18.0898077153687 | epot = -78.2757417280194 | etot = -54.4567170085474
6000  ekin = 5.58103231328815 |  erot = 17.8818838137361 | epot = -77.9196331337203 | etot = -54.456717006696
7000  ekin = 5.4608390844338 |  erot = 17.5394286863637 | epot = -77.4569847754239 | etot = -54.4567170046264
8000  ekin = 5.37466806168172 |  erot = 17.086045740889 | epot = -76.9174308051194 | etot = -54.4567170025487
9000  ekin = 5.32596283558534 |  erot = 16.5482758509796 | epot = -76.3309556871347 | etot = -54.4567170005697
10000  ekin = 5.31555310057074 |  erot = 15.9544038907651 | epot = -75.7266739899444 | etot = -54.4567169986085
   10000   352.2878      -75.545604      2.0130979     -64.081579     -0.0098473389   39304000     
Loop time of 16.7951 on 4 procs for 1000000 steps with 10 atoms

Performance: 87.763 ns/day, 0.273 hours/ns, 59541.025 timesteps/s, 595.410 katom-step/s
99.4% CPU use with 4 MPI tasks x no OpenMP threads

MPI task timing breakdown:
Section |  min time  |  avg time  |  max time  |%varavg| %total
---------------------------------------------------------------
Pair    | 5.5941     | 6.7707     | 9.5516     |  62.7 | 40.31
Bond    | 0.2092     | 0.2872     | 0.38189    |  13.0 |  1.71
Neigh   | 0.018433   | 0.018502   | 0.018552   |   0.0 |  0.11
Comm    | 3.8835     | 7.1053     | 8.5337     |  70.8 | 42.31
Output  | 0.073525   | 0.077664   | 0.085514   |   1.7 |  0.46
Modify  | 0.58013    | 0.70982    | 0.8931     |  15.7 |  4.23
Other   |            | 1.826      |            |       | 10.87

Nlocal:            2.5 ave           4 max           1 min
Histogram: 2 0 0 0 0 0 0 0 0 2
Nghost:            7.5 ave           9 max           6 min
Histogram: 2 0 0 0 0 0 0 0 0 2
Neighs:           9.25 ave          19 max           5 min
Histogram: 2 1 0 0 0 0 0 0 0 1

Total # of neighbors = 37
Ave neighs/atom = 3.7
Ave special neighs/atom = 3.6
Neighbor list builds = 1000
Dangerous builds = 0

write_data last_config.${number}.* nocoeff
write_data last_config.1.* nocoeff
System init for write_data ...
Generated 0 of 6 mixed pair_coeff terms from geometric mixing rule
#write_restart last_config.${number}.*
Total wall time: 0:00:16
