LAMMPS data file in real units via oxdna lj2real.py, date 2026-03-03

16 atoms
4 atom types
13 bonds
1 bond types
16 ellipsoids

-170 170 xlo xhi
-170 170 ylo yhi
-170 170 zlo zhi

Masses

1 315.75
2 315.75
3 315.75
4 315.75

Atoms # hybrid

1 1 -5.224492277936935 -5.6003990662830665 3.072035980595378 1 1 1.001368291519964 0 0 0
2 2 -3.855482258589815 -8.54410812515585 6.182955020430966 1 1 1.001368291519964 0 0 0
3 3 -0.8418698080395857 -10.56041032511679 9.10967975032824 1 1 1.001368291519964 0 0 0
4 4 2.502394065492512 -10.715431837829685 12.145744722571814 1 1 1.001368291519964 0 0 0
5 1 5.355178690564601 -8.674171903962998 15.067785212133312 1 1 1.001368291519964 0 0 0
6 2 6.7305169669220595 -5.763569949980494 18.347908888941284 1 1 1.001368291519964 0 0 0
7 3 6.061219006086631 -3.4238594469157198 21.88758604427721 1 1 1.001368291519964 0 0 0
8 4 4.001186577913306 -2.576839632838177 26.12300846270287 1 1 1.001368291519964 0 0 0
9 1 3.454997351061381 -12.298079702286948 26.05718083554597 2 1 1.001368291519964 0 0 0
10 2 -0.2728181587270111 -11.028698363238112 23.169872406755868 2 1 1.001368291519964 0 0 0
11 3 -2.692868178466912 -7.73787195036868 20.549852065183913 2 1 1.001368291519964 0 0 0
12 4 -3.316857346830113 -4.145374554885233 17.08862230448963 2 1 1.001368291519964 0 0 0
13 1 -0.5308965342198838 -0.6095451431748122 13.28229291571604 3 1 1.001368291519964 0 0 0
14 2 1.5233668194980015 -0.46991432454420656 8.699204689407908 3 1 1.001368291519964 0 0 0
15 3 3.844548159551531 -2.026909836907328 5.074452450044903 3 1 1.001368291519964 0 0 0
16 4 4.325141724684425 -4.740799489595668 1.4104749932020408 3 1 1.001368291519964 0 0 0

Velocities

1 0.0002690393647577605 0.0001130179447139163 0.0012427051183303245 0.7538441814041787 -1.2587479309192289 -1.1163540275039983
2 -0.0001995238597985888 0.001346947885256061 -0.0009482472537895566 -0.13023960934007375 -0.5006959369638267 0.17048479888417453
3 -0.0010380494401910233 -0.0006806641290251813 -0.0003027804929480561 -0.15638494584812476 -0.2683834724276717 -0.6295584148367085
4 -0.001197133456172963 -0.00280917478357915 0.00016218816556790039 -0.7029448226964804 1.2169591299295235 1.4270000455943157
5 -0.0008048320514461325 -0.0011431883036206337 -0.000676898530103465 0.3042173697995176 -0.40055580284093634 0.5710328763823952
6 -0.00023481900474525032 0.0009597472626698105 0.000728585799383882 0.3921763584606999 -2.399409573148441 0.39508973103101425
7 0.0002546331180034803 -0.00019207992631345877 -0.0007114029623653533 1.4800474217942172 1.8058644188786666 -0.5778396017587545
8 0.0018892558300712594 -0.00024741901007343376 0.0008122747652192041 0.18841216280989634 0.3347361099616475 -0.5408588170607794
9 0.0002453236816648594 0.00020606951872049605 6.105004054590449e-05 0.13966101957579105 -0.0005390272522298763 0.6635610560283818
10 0.0009685096369287377 0.0005531344257785145 -0.00020229582015273158 -0.7235558343818499 -1.9412198762781823 -1.2898026398714848
11 -0.0017548134128148659 -0.0009400547714245618 0.0018053493368335304 -1.5775423801156698 -2.089156523241498 0.40142175892794385
12 -0.0005936481607242583 0.0011164978244518912 4.627544638611304e-05 -1.2009578766075364 0.4371796881928091 0.432872243049402
13 -0.0007224887230596837 -0.0005769486376333062 0.0006649843884312752 -1.0847602627268067 1.171882165411387 0.24701513726828275
14 0.0002574436153453012 -0.0018284775211261776 -0.00033116354826720994 -0.5104945035430266 0.2911884512100599 0.9195807466434635
15 -0.0010095672272079958 0.0011657392002094524 4.0620800366850494e-05 -0.7238015607360523 0.07956550656183763 -1.1413756517624418
16 -0.000959018867681478 -0.00040480566860877305 -0.00023440954516069367 0.07373381980370028 -1.3986276381108809 0.46172014159934915

Bonds

1 1 1 2
2 1 2 3
3 1 3 4
4 1 4 5
5 1 5 6
6 1 6 7
7 1 7 8
8 1 9 10
9 1 10 11
10 1 11 12
11 1 13 14
12 1 14 15
13 1 15 16

Ellipsoids

1 9.999999997766462 9.999999997766462 9.999999997766462 0.9964752158482045 -0.053253555733239796 0.011391163807102514 -0.06380787090289707
2 9.999999997766462 9.999999997766462 9.999999997766462 0.9369923833143513 0.11220716044648564 0.06732538499716349 0.3239168400846305
3 9.999999997766462 9.999999997766462 9.999999997766462 0.797964932091827 0.14473096354527873 0.18374142699366386 0.5554673737937029
4 9.999999997766462 9.999999997766462 9.999999997766462 0.5660864821344559 0.14688275499481052 0.09873742533340191 0.8051226439917721
5 9.999999997766462 9.999999997766462 9.999999997766462 0.2533023785125306 0.12062313161679827 0.08583012223905846 0.9559922359911086
6 9.999999997766462 9.999999997766462 9.999999997766462 -0.03855807343534716 0.08405913137017908 0.02236505169306371 0.9954632800204194
7 9.999999997766462 9.999999997766462 9.999999997766462 -0.45592844330248017 0.1004550065061007 -0.052524745294758785 0.8827679181910482
8 9.999999997766462 9.999999997766462 9.999999997766462 0.768021221540491 -0.009582139884533599 0.03658677589040892 -0.63930665074644
9 9.999999997766462 9.999999997766462 9.999999997766462 -0.23299975754512345 0.688686395231341 0.6747873944883376 -0.12682324016841584
10 9.999999997766462 9.999999997766462 9.999999997766462 -0.24662061871907232 0.8744456399178389 0.39370836087823996 -0.13970261209395163
11 9.999999997766462 9.999999997766462 9.999999997766462 -0.087475900850909 0.977367602388229 0.14493549113095577 -0.12686307572668784
12 9.999999997766462 9.999999997766462 9.999999997766462 -0.03181169300779214 0.9634374984140112 -0.2442360692534371 -0.10547485630879185
13 9.999999997766462 9.999999997766462 9.999999997766462 -0.032786070696572266 0.7922941528811777 -0.6084214170523915 -0.03191282109962717
14 9.999999997766462 9.999999997766462 9.999999997766462 0.047188686288341455 0.6316396208287698 -0.7737349519945348 0.011783095844627799
15 9.999999997766462 9.999999997766462 9.999999997766462 -0.05869980642620335 -0.34229358203414423 0.9376740835056508 0.012519965878508689
16 9.999999997766462 9.999999997766462 9.999999997766462 -0.08582818143150042 0.0008707732197394232 0.9939540921464659 -0.0684691735853161
