LAMMPS (17 Apr 2024 - Development - patch_17Apr2024-174-g749e259294-modified)
# LAMMPS input file in real units via oxdna lj2real.py, date 2024-05-19
variable number	equal 2
variable ofreq	equal 1000
variable efreq	equal 1000
variable T      equal 300.0

units real

dimension 3

newton on

boundary  p p p

atom_style hybrid bond ellipsoid oxdna
WARNING: Atom style hybrid defines both, per-type and per-atom masses; both must be set, but only per-atom masses will be used (../atom_vec_hybrid.cpp:132)
atom_modify sort 0 8.518

# Pair interactions require lists of neighbours to be calculated
neighbor 17.036 bin
neigh_modify every 1 delay 0 check yes

read_data data.duplex2
Reading data file ...
  orthogonal box = (-170 -170 -170) to (170 170 170)
  1 by 2 by 2 MPI processor grid
  reading atoms ...
  16 atoms
  reading velocities ...
  16 velocities
  scanning bonds ...
  1 = max bonds/atom
  16 ellipsoids
  orthogonal box = (-170 -170 -170) to (170 170 170)
  1 by 2 by 2 MPI processor grid
  reading bonds ...
  13 bonds
Finding 1-2 1-3 1-4 neighbors ...
  special bond factors lj:    0        0        0       
  special bond factors coul:  0        0        0       
     2 = max # of 1-2 neighbors
     2 = max # of 1-3 neighbors
     4 = max # of 1-4 neighbors
     6 = max # of special neighbors
  special bonds CPU = 0.001 seconds
  read_data CPU = 0.013 seconds

set atom * mass 315.8376
Setting atom values ...
  16 settings made for mass

group all type 1 4
16 atoms in group all

# oxDNA bond interactions - FENE backbone
bond_style oxdna/fene
bond_coeff * 11.92337812042065 2.1295 6.409795
special_bonds lj 0 1 1
Finding 1-2 1-3 1-4 neighbors ...
  special bond factors lj:    0        1        1       
  special bond factors coul:  0        0        0       
     2 = max # of 1-2 neighbors
     2 = max # of 1-3 neighbors
     4 = max # of 1-4 neighbors
     6 = max # of special neighbors
  special bonds CPU = 0.000 seconds

# oxDNA pair interactions
pair_style hybrid/overlay oxdna/excv oxdna/stk oxdna/hbond oxdna/xstk oxdna/coaxstk
pair_coeff * * oxdna/excv 11.92337812042065 5.9626 5.74965 11.92337812042065 4.38677 4.259 11.92337812042065 2.81094 2.72576
pair_coeff * * oxdna/stk seqav ${T} 8.01727944817084 0.005279604 0.70439070204273 3.4072 7.6662 2.72576 6.3885 1.3 0.0 0.8 0.9 0.0 0.95 0.9 0.0 0.95 2.0 0.65 2.0 0.65
pair_coeff * * oxdna/stk seqav 300 8.01727944817084 0.005279604 0.70439070204273 3.4072 7.6662 2.72576 6.3885 1.3 0.0 0.8 0.9 0.0 0.95 0.9 0.0 0.95 2.0 0.65 2.0 0.65
pair_coeff * * oxdna/hbond seqav 0.0 0.93918760272364 3.4072 6.3885 2.89612 5.9626 1.5 0.0 0.7 1.5 0 0.7 1.5 0 0.7 0.46 3.141592654 0.7 4.0 1.570796327 0.45 4.0 1.570796327 0.45
pair_coeff 1 4 oxdna/hbond seqav 6.42073911784652 0.93918760272364 3.4072 6.3885 2.89612 5.9626 1.5 0 0.7 1.5 0.0 0.7 1.5 0 0.7 0.46 3.141592654 0.7 4.0 1.570796327 0.45 4.0 1.570796327 0.45
pair_coeff 2 3 oxdna/hbond seqav 6.42073911784652 0.93918760272364 3.4072 6.3885 2.89612 5.9626 1.5 0 0.7 1.5 0.0 0.7 1.5 0 0.7 0.46 3.141592654 0.7 4.0 1.570796327 0.45 4.0 1.570796327 0.45
pair_coeff * * oxdna/xstk 3.9029021145006 4.89785 5.74965 4.21641 5.57929 2.25 0.791592654 0.58 1.7 1.0 0.68 1.7 1.0 0.68 1.5 0 0.65 1.7 0.875 0.68 1.7 0.875 0.68
pair_coeff * * oxdna/coaxstk 3.77965257404268 3.4072 5.1108 1.87396 4.94044 2.0 2.541592654 0.65 1.3 0 0.8 0.9 0 0.95 0.9 0 0.95 2 -0.65 2 -0.65

# NVE ensemble
fix 1 all nve/asphere
fix 2 all langevin ${T} ${T} 4265.0 457145 angmom 10
fix 2 all langevin 300 ${T} 4265.0 457145 angmom 10
fix 2 all langevin 300 300 4265.0 457145 angmom 10

timestep 0.01706

#comm_style tiled
fix 3 all balance 1000 1.03 shift xyz 10 1.03
comm_modify cutoff 32.4

compute quat all property/atom quatw quati quatj quatk

compute erot all erotate/asphere
compute ekin all ke
compute epot all pe
variable erot equal c_erot
variable ekin equal c_ekin
variable epot equal c_epot
variable etot equal c_erot+c_ekin+c_epot
fix 5 all print ${efreq} "$(step)  ekin = ${ekin} |  erot = ${erot} | epot = ${epot} | etot = ${etot}" screen yes
fix 5 all print 1000 "$(step)  ekin = ${ekin} |  erot = ${erot} | epot = ${epot} | etot = ${etot}" screen yes

dump out all custom ${ofreq} out.${number}.lammpstrj id mol type x y z ix iy iz vx vy vz c_quat[1] c_quat[2] c_quat[3] c_quat[4] angmomx angmomy angmomz
dump out all custom 1000 out.${number}.lammpstrj id mol type x y z ix iy iz vx vy vz c_quat[1] c_quat[2] c_quat[3] c_quat[4] angmomx angmomy angmomz
dump out all custom 1000 out.2.lammpstrj id mol type x y z ix iy iz vx vy vz c_quat[1] c_quat[2] c_quat[3] c_quat[4] angmomx angmomy angmomz
dump_modify out sort id
dump_modify out format line "%d %d %d  %22.15le %22.15le %22.15le  %d %d %d  %22.15le %22.15le %22.15le  %22.15le %22.15le %22.15le %22.15le  %22.15le %22.15le %22.15le"

run 1000000
Generated 0 of 6 mixed pair_coeff terms from geometric mixing rule
Neighbor list info ...
  update: every = 1 steps, delay = 0 steps, check = yes
  max neighbors/atom: 2000, page size: 100000
  master list distance cutoff = 25.179212
  ghost atom cutoff = 32.4
  binsize = 12.589606, bins = 28 28 28
  4 neighbor lists, perpetual/occasional/extra = 4 0 0
  (1) pair oxdna/excv, perpetual
      attributes: half, newton on
      pair build: half/bin/newton
      stencil: half/bin/3d
      bin: standard
  (2) pair oxdna/hbond, perpetual, copy from (1)
      attributes: half, newton on
      pair build: copy
      stencil: none
      bin: none
  (3) pair oxdna/xstk, perpetual, copy from (1)
      attributes: half, newton on
      pair build: copy
      stencil: none
      bin: none
  (4) pair oxdna/coaxstk, perpetual, copy from (1)
      attributes: half, newton on
      pair build: copy
      stencil: none
      bin: none
0  ekin = 16.1203242878408 |  erot = 16.6982509426318 | epot = -131.137679785989 | etot = -98.3191045555159
Per MPI rank memory allocation (min/avg/max) = 7.232 | 7.264 | 7.344 Mbytes
   Step          Temp          E_pair         E_mol          TotEng         Press          Volume    
         0   360.53565     -132.72638      1.5886993     -115.01736      0.034438461    39304000     
1000  ekin = 16.0915734242602 |  erot = 18.1131907799999 | epot = -129.960758701937 | etot = -95.7559944976768
2000  ekin = 16.3445512762835 |  erot = 14.8147206882645 | epot = -128.691660333568 | etot = -97.5323883690197
3000  ekin = 16.1759985834646 |  erot = 13.3386627579329 | epot = -127.637971683901 | etot = -98.1233103425036
4000  ekin = 15.6545057241999 |  erot = 13.1236462676588 | epot = -126.77586522849 | etot = -97.9977132366311
5000  ekin = 15.1758404392585 |  erot = 13.0857411237448 | epot = -126.165703238772 | etot = -97.9041216757689
6000  ekin = 15.1413640531156 |  erot = 13.3861657435171 | epot = -125.809598527628 | etot = -97.282068730995
7000  ekin = 15.1774504947436 |  erot = 12.9637778426295 | epot = -125.76113527326 | etot = -97.619906935887
8000  ekin = 14.5595245432668 |  erot = 11.3238063810154 | epot = -125.967991017334 | etot = -100.084660093052
9000  ekin = 14.8927108369538 |  erot = 11.4216264838282 | epot = -126.397480899428 | etot = -100.083143578646
10000  ekin = 15.5221737145433 |  erot = 13.8269758172558 | epot = -126.818238777881 | etot = -97.4690892460816
   10000   367.18625     -134.96443      4.8777959     -113.66895     -0.029625089    39304000     
Loop time of 26.4037 on 4 procs for 1000000 steps with 16 atoms

Performance: 55.825 ns/day, 0.430 hours/ns, 37873.477 timesteps/s, 605.976 katom-step/s
99.4% CPU use with 4 MPI tasks x no OpenMP threads

MPI task timing breakdown:
Section |  min time  |  avg time  |  max time  |%varavg| %total
---------------------------------------------------------------
Pair    | 8.0347     | 10.957     | 16.143     |  93.9 | 41.50
Bond    | 0.3256     | 0.38079    | 0.42679    |   6.8 |  1.44
Neigh   | 0.021142   | 0.021313   | 0.021466   |   0.1 |  0.08
Comm    | 5.5113     | 11.003     | 14.141     | 100.0 | 41.67
Output  | 0.091898   | 0.097995   | 0.11134    |   2.5 |  0.37
Modify  | 1.3872     | 1.6961     | 1.9792     |  21.0 |  6.42
Other   |            | 2.247      |            |       |  8.51

Nlocal:              4 ave           6 max           2 min
Histogram: 2 0 0 0 0 0 0 0 0 2
Nghost:             12 ave          14 max          10 min
Histogram: 2 0 0 0 0 0 0 0 0 2
Neighs:          26.25 ave          67 max           8 min
Histogram: 1 2 0 0 0 0 0 0 0 1

Total # of neighbors = 105
Ave neighs/atom = 6.5625
Ave special neighs/atom = 3.75
Neighbor list builds = 1000
Dangerous builds = 0

write_data last_config.${number}.* nocoeff
write_data last_config.2.* nocoeff
System init for write_data ...
Generated 0 of 6 mixed pair_coeff terms from geometric mixing rule
#write_restart last_config.${number}.*
Total wall time: 0:00:26
