LAMMPS (11 Feb 2026 - Development - patch_10Dec2025-1372-ged4f75871d)
variable number	equal 5
variable ofreq	equal 1000
variable efreq	equal 1000
variable T      equal 0.1
variable rhos   equal 0.2

units lj

dimension 3

newton on

boundary  p p p

atom_style hybrid bond ellipsoid oxdna
WARNING: Atom style hybrid defines both, per-type and per-atom masses; both must be set, but only per-atom masses will be used (../atom_vec_hybrid.cpp:132)
atom_modify sort 0 1.0

# Pair interactions require lists of neighbours to be calculated
neighbor 2.0 bin
neigh_modify every 1 delay 0 check yes

read_data data.dsring
Reading data file ...
  orthogonal box = (0 0 0) to (100 100 100)
  1 by 2 by 2 MPI processor grid
  reading atoms ...
  148 atoms
  reading velocities ...
  148 velocities
  scanning bonds ...
  1 = max bonds/atom
  148 ellipsoids
  orthogonal box = (0 0 0) to (100 100 100)
  1 by 2 by 2 MPI processor grid
  reading bonds ...
  148 bonds
Finding 1-2 1-3 1-4 neighbors ...
  special bond factors lj:    0        0        0       
  special bond factors coul:  0        0        0       
     2 = max # of 1-2 neighbors
     2 = max # of 1-3 neighbors
     4 = max # of 1-4 neighbors
     6 = max # of special neighbors
  special bonds CPU = 0.000 seconds
  read_data CPU = 0.002 seconds

set atom * mass 3.1575
Setting atom values ...
  148 settings made for mass

group all type 1 4
148 atoms in group all

# oxDNA2 bond interactions - FENE backbone
bond_style oxdna2/fene
bond_coeff * 2.0 0.25 0.7564
special_bonds lj 0 1 1
Finding 1-2 1-3 1-4 neighbors ...
  special bond factors lj:    0        1        1       
  special bond factors coul:  0        0        0       
     2 = max # of 1-2 neighbors
     2 = max # of 1-3 neighbors
     4 = max # of 1-4 neighbors
     6 = max # of special neighbors
  special bonds CPU = 0.000 seconds

# oxDNA2 pair interactions
pair_style hybrid/overlay oxdna2/excv oxdna2/stk oxdna2/hbond oxdna2/xstk oxdna2/coaxstk oxdna2/dh
pair_coeff * * oxdna2/excv    2.0 0.7 0.675 2.0 0.515 0.5 2.0 0.33 0.32
pair_coeff * * oxdna2/stk     seqdep ${T} 1.3523 2.6717 6.0 0.4 0.9 0.32 0.75 1.3 0 0.8 0.9 0 0.95 0.9 0 0.95 2.0 0.65 2.0 0.65
pair_coeff * * oxdna2/stk     seqdep 0.1 1.3523 2.6717 6.0 0.4 0.9 0.32 0.75 1.3 0 0.8 0.9 0 0.95 0.9 0 0.95 2.0 0.65 2.0 0.65
pair_coeff * * oxdna2/hbond   seqdep 0.0 8.0 0.4 0.75 0.34 0.7 1.5 0 0.7 1.5 0 0.7 1.5 0 0.7 0.46 3.141592653589793 0.7 4.0 1.5707963267948966 0.45 4.0 1.5707963267948966 0.45
pair_coeff 1 4 oxdna2/hbond   seqdep 1.0678 8.0 0.4 0.75 0.34 0.7 1.5 0 0.7 1.5 0 0.7 1.5 0 0.7 0.46 3.141592653589793 0.7 4.0 1.5707963267948966 0.45 4.0 1.5707963267948966 0.45
pair_coeff 2 3 oxdna2/hbond   seqdep 1.0678 8.0 0.4 0.75 0.34 0.7 1.5 0 0.7 1.5 0 0.7 1.5 0 0.7 0.46 3.141592653589793 0.7 4.0 1.5707963267948966 0.45 4.0 1.5707963267948966 0.45
pair_coeff * * oxdna2/xstk    47.5 0.575 0.675 0.495 0.655 2.25 0.791592653589793 0.58 1.7 1.0 0.68 1.7 1.0 0.68 1.5 0 0.65 1.7 0.875 0.68 1.7 0.875 0.68
pair_coeff * * oxdna2/coaxstk 58.5 0.4 0.6 0.22 0.58 2.0 2.891592653589793 0.65 1.3 0 0.8 0.9 0 0.95 0.9 0 0.95 40.0 3.116592653589793
pair_coeff * * oxdna2/dh      ${T} ${rhos} 0.815
pair_coeff * * oxdna2/dh      0.1 ${rhos} 0.815
pair_coeff * * oxdna2/dh      0.1 0.2 0.815

# NVE ensemble
fix 1 all nve/asphere
#fix 2 all langevin ${T} ${T} 2.5 457145 angmom 10

timestep 1e-5

#comm_style tiled
fix 3 all balance 1000 1.03 shift xyz 10 1.03
comm_modify cutoff 3.8

compute quat all property/atom quatw quati quatj quatk

compute erot all erotate/asphere
compute ekin all ke
compute epot all pe
variable erot equal c_erot
variable ekin equal c_ekin
variable epot equal c_epot
variable etot equal c_erot+c_ekin+c_epot
fix 5 all print ${efreq} "$(step)  ekin = ${ekin} |  erot = ${erot} | epot = ${epot} | etot = ${etot}" screen yes
fix 5 all print 1000 "$(step)  ekin = ${ekin} |  erot = ${erot} | epot = ${epot} | etot = ${etot}" screen yes

dump out all custom ${ofreq} out.${number}.lammpstrj id mol type x y z ix iy iz vx vy vz c_quat[1] c_quat[2] c_quat[3] c_quat[4] angmomx angmomy angmomz
dump out all custom 1000 out.${number}.lammpstrj id mol type x y z ix iy iz vx vy vz c_quat[1] c_quat[2] c_quat[3] c_quat[4] angmomx angmomy angmomz
dump out all custom 1000 out.5.lammpstrj id mol type x y z ix iy iz vx vy vz c_quat[1] c_quat[2] c_quat[3] c_quat[4] angmomx angmomy angmomz
dump_modify out sort id
dump_modify out format line "%d %d %d  %22.15le %22.15le %22.15le  %d %d %d  %22.15le %22.15le %22.15le  %22.15le %22.15le %22.15le %22.15le  %22.15le %22.15le %22.15le"

run 10000
Generated 0 of 6 mixed pair_coeff terms from geometric mixing rule
Neighbor list info ...
  update: every = 1 steps, delay = 0 steps, check = yes
  max neighbors/atom: 2000, page size: 100000
  master list distance cutoff = 5.6389877
  ghost atom cutoff = 5.6389877
  binsize = 2.8194939, bins = 36 36 36
  5 neighbor lists, perpetual/occasional/extra = 5 0 0
  (1) pair oxdna2/excv, perpetual
      attributes: half, newton on
      pair build: half/bin/newton
      stencil: half/bin/3d
      bin: standard
  (2) pair oxdna2/hbond, perpetual, copy from (1)
      attributes: half, newton on
      pair build: copy
      stencil: none
      bin: none
  (3) pair oxdna2/xstk, perpetual, copy from (1)
      attributes: half, newton on
      pair build: copy
      stencil: none
      bin: none
  (4) pair oxdna2/coaxstk, perpetual, copy from (1)
      attributes: half, newton on
      pair build: copy
      stencil: none
      bin: none
  (5) pair oxdna2/dh, perpetual, copy from (1)
      attributes: half, newton on
      pair build: copy
      stencil: none
      bin: none
WARNING: Communication cutoff adjusted to 5.638987723814633 (../comm.cpp:703)
0  ekin = 20.4724634226502 |  erot = 21.0406985312466 | epot = -222.283862600785 | etot = -180.770700646889
Per MPI rank memory allocation (min/avg/max) = 8.872 | 8.926 | 8.999 Mbytes
   Step          Temp          E_pair         E_mol          TotEng         Press          Volume    
         0   0.092845639   -1.5501211      0.04820308    -1.3635905     -9.0052368e-06  1000000      
1000  ekin = 20.531989141805 |  erot = 21.2158633183735 | epot = -222.518553109361 | etot = -180.770700649183
2000  ekin = 20.585620972069 |  erot = 21.391859435226 | epot = -222.748181058335 | etot = -180.77070065104
3000  ekin = 20.6239332104642 |  erot = 21.5529389082727 | epot = -222.947572771312 | etot = -180.770700652575
4000  ekin = 20.6395549184481 |  erot = 21.6854113323894 | epot = -223.095666904228 | etot = -180.770700653391
5000  ekin = 20.6295551742563 |  erot = 21.7809539301804 | epot = -223.181209757876 | etot = -180.770700653439
6000  ekin = 20.5959625511846 |  erot = 21.8369756530726 | epot = -223.203638857302 | etot = -180.770700653045
7000  ekin = 20.5431034482068 |  erot = 21.8556844173874 | epot = -223.169488517717 | etot = -180.770700652123
8000  ekin = 20.4774701419091 |  erot = 21.8437134145373 | epot = -223.091884207389 | etot = -180.770700650943
9000  ekin = 20.4074566554238 |  erot = 21.8097283692397 | epot = -222.987885674261 | etot = -180.770700649598
10000  ekin = 20.3427303660296 |  erot = 21.7629575866662 | epot = -222.876388600949 | etot = -180.770700648253
     10000   0.092257281   -1.545251       0.039329486   -1.3684707     -1.0121297e-05  1000000      
Loop time of 0.681975 on 4 procs for 10000 steps with 148 atoms

Performance: 12669.086 tau/day, 14663.294 timesteps/s, 2.170 Matom-step/s
99.9% CPU use with 4 MPI tasks x no OpenMP threads

MPI task timing breakdown:
Section |  min time  |  avg time  |  max time  |%varavg| %total
---------------------------------------------------------------
Pair    | 0.37751    | 0.49183    | 0.56649    |  11.2 | 72.12
Bond    | 0.008665   | 0.009266   | 0.00977    |   0.4 |  1.36
Neigh   | 0.000223   | 0.0002245  | 0.000226   |   0.0 |  0.03
Comm    | 0.0497     | 0.1255     | 0.24062    |  22.4 | 18.40
Output  | 0.001667   | 0.0017438  | 0.001796   |   0.1 |  0.26
Modify  | 0.04524    | 0.045596   | 0.045948   |   0.1 |  6.69
Other   |            | 0.007816   |            |       |  1.15

Nlocal:             37 ave          38 max          36 min
Histogram: 2 0 0 0 0 0 0 0 0 2
Nghost:            111 ave         112 max         110 min
Histogram: 2 0 0 0 0 0 0 0 0 2
Neighs:         1083.5 ave        1351 max         785 min
Histogram: 1 0 1 0 0 0 0 0 1 1

Total # of neighbors = 4334
Ave neighs/atom = 29.283784
Ave special neighs/atom = 6
Neighbor list builds = 10
Dangerous builds = 0

write_data last_config.${number}.* nocoeff
write_data last_config.5.* nocoeff
System init for write_data ...
Generated 0 of 6 mixed pair_coeff terms from geometric mixing rule
#write_restart last_config.${number}.*
Total wall time: 0:00:00
