LAMMPS (2 Jul 2021)
variable number	equal 5
variable ofreq	equal 1000
variable efreq	equal 1000
variable T      equal 0.1
variable rhos   equal 0.2

units lj

dimension 3

newton on

boundary  p p p

atom_style hybrid bond ellipsoid oxdna
WARNING: Atom style hybrid defines both, per-type and per-atom masses; both must be set, but only per-atom masses will be used (../atom_vec_hybrid.cpp:157)
atom_modify sort 0 1.0

# Pair interactions require lists of neighbours to be calculated
neighbor 2.0 bin
neigh_modify every 1 delay 0 check yes

read_data data.dsring
Reading data file ...
  orthogonal box = (0.0000000 0.0000000 0.0000000) to (100.00000 100.00000 100.00000)
  1 by 2 by 2 MPI processor grid
  reading atoms ...
  148 atoms
  reading velocities ...
  148 velocities
  scanning bonds ...
  1 = max bonds/atom
  148 ellipsoids
  reading bonds ...
  148 bonds
Finding 1-2 1-3 1-4 neighbors ...
  special bond factors lj:    0        0        0       
  special bond factors coul:  0        0        0       
     2 = max # of 1-2 neighbors
     2 = max # of 1-3 neighbors
     4 = max # of 1-4 neighbors
     6 = max # of special neighbors
  special bonds CPU = 0.001 seconds
  read_data CPU = 0.008 seconds

set atom * mass 3.1575
Setting atom values ...
  148 settings made for mass

group all type 1 4
148 atoms in group all

# oxDNA2 bond interactions - FENE backbone
bond_style oxdna2/fene
bond_coeff * 2.0 0.25 0.7564
special_bonds lj 0 1 1
Finding 1-2 1-3 1-4 neighbors ...
  special bond factors lj:    0        1        1       
  special bond factors coul:  0        0        0       
     2 = max # of 1-2 neighbors
     2 = max # of 1-3 neighbors
     4 = max # of 1-4 neighbors
     6 = max # of special neighbors
  special bonds CPU = 0.000 seconds

# oxDNA2 pair interactions
pair_style hybrid/overlay oxdna2/excv oxdna2/stk oxdna2/hbond oxdna2/xstk oxdna2/coaxstk oxdna2/dh
pair_coeff * * oxdna2/excv    2.0 0.7 0.675 2.0 0.515 0.5 2.0 0.33 0.32
pair_coeff * * oxdna2/stk     seqdep ${T} 1.3523 2.6717 6.0 0.4 0.9 0.32 0.75 1.3 0 0.8 0.9 0 0.95 0.9 0 0.95 2.0 0.65 2.0 0.65
pair_coeff * * oxdna2/stk     seqdep 0.1 1.3523 2.6717 6.0 0.4 0.9 0.32 0.75 1.3 0 0.8 0.9 0 0.95 0.9 0 0.95 2.0 0.65 2.0 0.65
pair_coeff * * oxdna2/hbond   seqdep 0.0 8.0 0.4 0.75 0.34 0.7 1.5 0 0.7 1.5 0 0.7 1.5 0 0.7 0.46 3.141592653589793 0.7 4.0 1.5707963267948966 0.45 4.0 1.5707963267948966 0.45
pair_coeff 1 4 oxdna2/hbond   seqdep 1.0678 8.0 0.4 0.75 0.34 0.7 1.5 0 0.7 1.5 0 0.7 1.5 0 0.7 0.46 3.141592653589793 0.7 4.0 1.5707963267948966 0.45 4.0 1.5707963267948966 0.45
pair_coeff 2 3 oxdna2/hbond   seqdep 1.0678 8.0 0.4 0.75 0.34 0.7 1.5 0 0.7 1.5 0 0.7 1.5 0 0.7 0.46 3.141592653589793 0.7 4.0 1.5707963267948966 0.45 4.0 1.5707963267948966 0.45
pair_coeff * * oxdna2/xstk    47.5 0.575 0.675 0.495 0.655 2.25 0.791592653589793 0.58 1.7 1.0 0.68 1.7 1.0 0.68 1.5 0 0.65 1.7 0.875 0.68 1.7 0.875 0.68
pair_coeff * * oxdna2/coaxstk 58.5 0.4 0.6 0.22 0.58 2.0 2.891592653589793 0.65 1.3 0 0.8 0.9 0 0.95 0.9 0 0.95 40.0 3.116592653589793
pair_coeff * * oxdna2/dh      ${T} ${rhos} 0.815
pair_coeff * * oxdna2/dh      0.1 ${rhos} 0.815
pair_coeff * * oxdna2/dh      0.1 0.2 0.815

# NVE ensemble
fix 1 all nve/asphere
#fix 2 all langevin ${T} ${T} 2.5 457145 angmom 10

timestep 1e-5

#comm_style tiled
fix 3 all balance 1000 1.03 shift xyz 10 1.03
comm_modify cutoff 3.8

compute quat all property/atom quatw quati quatj quatk

compute erot all erotate/asphere
compute ekin all ke
compute epot all pe
variable erot equal c_erot
variable ekin equal c_ekin
variable epot equal c_epot
variable etot equal c_erot+c_ekin+c_epot
fix 5 all print ${efreq} "$(step)  ekin = ${ekin} |  erot = ${erot} | epot = ${epot} | etot = ${etot}" screen yes
fix 5 all print 1000 "$(step)  ekin = ${ekin} |  erot = ${erot} | epot = ${epot} | etot = ${etot}" screen yes

dump out all custom ${ofreq} out.${number}.lammpstrj id mol type x y z ix iy iz vx vy vz c_quat[1] c_quat[2] c_quat[3] c_quat[4] angmomx angmomy angmomz
dump out all custom 1000 out.${number}.lammpstrj id mol type x y z ix iy iz vx vy vz c_quat[1] c_quat[2] c_quat[3] c_quat[4] angmomx angmomy angmomz
dump out all custom 1000 out.5.lammpstrj id mol type x y z ix iy iz vx vy vz c_quat[1] c_quat[2] c_quat[3] c_quat[4] angmomx angmomy angmomz
dump_modify out sort id
dump_modify out format line "%d %d %d  %22.15le %22.15le %22.15le  %d %d %d  %22.15le %22.15le %22.15le  %22.15le %22.15le %22.15le %22.15le  %22.15le %22.15le %22.15le"

run 100000
Neighbor list info ...
  update every 1 steps, delay 0 steps, check yes
  max neighbors/atom: 2000, page size: 100000
  master list distance cutoff = 5.6389877
  ghost atom cutoff = 5.6389877
  binsize = 2.8194939, bins = 36 36 36
  5 neighbor lists, perpetual/occasional/extra = 5 0 0
  (1) pair oxdna2/excv, perpetual
      attributes: half, newton on
      pair build: half/bin/newton
      stencil: half/bin/3d
      bin: standard
  (2) pair oxdna2/hbond, perpetual, copy from (1)
      attributes: half, newton on
      pair build: copy
      stencil: none
      bin: none
  (3) pair oxdna2/xstk, perpetual, copy from (1)
      attributes: half, newton on
      pair build: copy
      stencil: none
      bin: none
  (4) pair oxdna2/coaxstk, perpetual, copy from (1)
      attributes: half, newton on
      pair build: copy
      stencil: none
      bin: none
  (5) pair oxdna2/dh, perpetual, copy from (1)
      attributes: half, newton on
      pair build: copy
      stencil: none
      bin: none
WARNING: Communication cutoff adjusted to 5.638987723814632 (../comm.cpp:739)
0  ekin = 20.4724634226502 |  erot = 21.0406985312466 | epot = -222.283862600785 | etot = -180.770700646889
Per MPI rank memory allocation (min/avg/max) = 9.383 | 9.432 | 9.506 Mbytes
Step Temp E_pair E_mol TotEng Press Volume 
       0  0.092845639   -1.5501211   0.04820308   -1.3635905 -9.0052368e-06      1000000 
1000  ekin = 20.531989141805 |  erot = 21.2158633183735 | epot = -222.518553109361 | etot = -180.770700649183
2000  ekin = 20.585620972069 |  erot = 21.391859435226 | epot = -222.748181058335 | etot = -180.77070065104
3000  ekin = 20.6239332104643 |  erot = 21.5529389082727 | epot = -222.947572771312 | etot = -180.770700652575
4000  ekin = 20.6395549184482 |  erot = 21.6854113323894 | epot = -223.095666904229 | etot = -180.770700653391
5000  ekin = 20.6295551742564 |  erot = 21.7809539301804 | epot = -223.181209757876 | etot = -180.770700653439
6000  ekin = 20.5959625511847 |  erot = 21.8369756530726 | epot = -223.203638857302 | etot = -180.770700653045
7000  ekin = 20.5431034482069 |  erot = 21.8556844173874 | epot = -223.169488517717 | etot = -180.770700652123
8000  ekin = 20.4774701419093 |  erot = 21.8437134145373 | epot = -223.09188420739 | etot = -180.770700650943
9000  ekin = 20.4074566554239 |  erot = 21.8097283692397 | epot = -222.987885674261 | etot = -180.770700649598
10000  ekin = 20.3427303660297 |  erot = 21.7629575866662 | epot = -222.876388600949 | etot = -180.770700648253
  10000   0.10528617   -1.5761124  0.044860201   -1.3743901 -1.9205819e-05      1000000 
Loop time of 28.0802 on 4 procs for 100000 steps with 148 atoms

Performance: 3076.899 tau/day, 3561.226 timesteps/s
99.7% CPU use with 4 MPI tasks x no OpenMP threads

MPI task timing breakdown:
Section |  min time  |  avg time  |  max time  |%varavg| %total
---------------------------------------------------------------
Pair    | 16.209     | 21.356     | 25.248     |  81.3 | 76.05
Bond    | 0.26072    | 0.26526    | 0.27015    |   0.9 |  0.94
Neigh   | 0.005772   | 0.0058625  | 0.005932   |   0.1 |  0.02
Comm    | 1.7227     | 5.6246     | 10.79      | 158.9 | 20.03
Output  | 0.043943   | 0.046855   | 0.048664   |   0.9 |  0.17
Modify  | 0.54715    | 0.55336    | 0.55902    |   0.7 |  1.97
Other   |            | 0.2279     |            |       |  0.81

Nlocal:        37.0000 ave          38 max          36 min
Histogram: 1 0 0 0 0 2 0 0 0 1
Nghost:        111.000 ave         112 max         110 min
Histogram: 1 0 0 0 0 2 0 0 0 1
Neighs:        1049.75 ave        1270 max         757 min
Histogram: 1 0 0 1 0 0 0 0 0 2

Total # of neighbors = 4199
Ave neighs/atom = 28.371622
Ave special neighs/atom = 6.0000000
Neighbor list builds = 100
Dangerous builds = 0

write_data last_config.${number}.* nocoeff
write_data last_config.5.* nocoeff
System init for write_data ...
#write_restart last_config.${number}.*
Total wall time: 0:00:28
