LAMMPS (17 Apr 2024)
  using 1 OpenMP thread(s) per MPI task
WARNING: Atom style hybrid defines both, per-type and per-atom masses; both must be set, but only per-atom masses will be used (src/atom_vec_hybrid.cpp:132)
Reading data file ...
  orthogonal box = (-170 -170 -170) to (170 170 170)
  1 by 1 by 1 MPI processor grid
  reading atoms ...
  10 atoms
  reading velocities ...
  10 velocities
  scanning bonds ...
  1 = max bonds/atom
  10 ellipsoids
  orthogonal box = (-170 -170 -170) to (170 170 170)
  1 by 1 by 1 MPI processor grid
  reading bonds ...
  8 bonds
Finding 1-2 1-3 1-4 neighbors ...
  special bond factors lj:    0        0        0       
  special bond factors coul:  0        0        0       
     2 = max # of 1-2 neighbors
     2 = max # of 1-3 neighbors
     2 = max # of 1-4 neighbors
     4 = max # of special neighbors
  special bonds CPU = 0.000 seconds
  read_data CPU = 0.005 seconds
Setting atom values ...
  10 settings made for mass
10 atoms in group all
Reading oxdna potential (fene) file oxdna.real with DATE: 2024-04-26
Finding 1-2 1-3 1-4 neighbors ...
  special bond factors lj:    0        1        1       
  special bond factors coul:  0        0        0       
     2 = max # of 1-2 neighbors
     2 = max # of 1-3 neighbors
     2 = max # of 1-4 neighbors
     4 = max # of special neighbors
  special bonds CPU = 0.000 seconds
Reading oxdna potential (excv) file oxdna.real with DATE: 2024-04-26
Reading oxdna potential (stk) file oxdna.real with DATE: 2024-04-26
Reading oxdna potential (hbond) file oxdna.real with DATE: 2024-04-26
Reading oxdna potential (hbond) file oxdna.real with DATE: 2024-04-26
Reading oxdna potential (hbond) file oxdna.real with DATE: 2024-04-26
Reading oxdna potential (xstk) file oxdna.real with DATE: 2024-04-26
Reading oxdna potential (coaxstk) file oxdna.real with DATE: 2024-04-26
Generated 0 of 6 mixed pair_coeff terms from geometric mixing rule
Neighbor list info ...
  update: every = 1 steps, delay = 0 steps, check = yes
  max neighbors/atom: 2000, page size: 100000
  master list distance cutoff = 25.179212
  ghost atom cutoff = 32.4
  binsize = 12.589606, bins = 28 28 28
  4 neighbor lists, perpetual/occasional/extra = 4 0 0
  (1) pair oxdna/excv, perpetual
      attributes: half, newton on
      pair build: half/bin/newton
      stencil: half/bin/3d
      bin: standard
  (2) pair oxdna/hbond, perpetual, copy from (1)
      attributes: half, newton on
      pair build: copy
      stencil: none
      bin: none
  (3) pair oxdna/xstk, perpetual, copy from (1)
      attributes: half, newton on
      pair build: copy
      stencil: none
      bin: none
  (4) pair oxdna/coaxstk, perpetual, copy from (1)
      attributes: half, newton on
      pair build: copy
      stencil: none
      bin: none
Setting up Verlet run ...
  Unit style    : real
  Current step  : 0
  Time step     : 0.01706
0  ekin = 6.60687273927977 |  erot = 16.7817849122513 | epot = -77.8452930576477 | etot = -54.4566354061166
Per MPI rank memory allocation (min/avg/max) = 7.196 | 7.196 | 7.196 Mbytes
   Step          Temp          E_pair         E_mol          TotEng         Press          Volume    
         0   246.27432     -80.414328      2.5690347     -71.23842      -0.031164648    39304000     
1000  ekin = 6.43820748574479 |  erot = 17.3362209220524 | epot = -78.2310638156466 | etot = -54.4566354078494
2000  ekin = 6.25962687713456 |  erot = 17.7614973153003 | epot = -78.4777596014537 | etot = -54.4566354090188
3000  ekin = 6.07700448778501 |  erot = 18.0349390575316 | epot = -78.5685789546716 | etot = -54.456635409355
4000  ekin = 5.8974424369014 |  erot = 18.1444655563221 | epot = -78.4985434019985 | etot = -54.456635408775
5000  ekin = 5.72921495795424 |  erot = 18.0898135345449 | epot = -78.2756638999 | etot = -54.4566354074009
6000  ekin = 5.58102962967708 |  erot = 17.881890737865 | epot = -77.9195557730913 | etot = -54.4566354055493
7000  ekin = 5.46083564262923 |  erot = 17.5394365844241 | epot = -77.4569076305333 | etot = -54.45663540348
8000  ekin = 5.37466374419903 |  erot = 17.0860544650629 | epot = -76.9173536106644 | etot = -54.4566354014025
9000  ekin = 5.32595754281569 |  erot = 16.5482852541262 | epot = -76.3308781963659 | etot = -54.456635399424
10000  ekin = 5.31554676342217 |  erot = 15.954413846903 | epot = -75.7265960077926 | etot = -54.4566353974674
   10000   352.42265     -75.546285      2.0131342     -64.078606     -0.0098335381   39304000     
Loop time of 9.84056 on 1 procs for 1000000 steps with 10 atoms

Performance: 149.787 ns/day, 0.160 hours/ns, 101620.202 timesteps/s, 1.016 Matom-step/s
99.8% CPU use with 1 MPI tasks x 1 OpenMP threads

MPI task timing breakdown:
Section |  min time  |  avg time  |  max time  |%varavg| %total
---------------------------------------------------------------
Pair    | 7.6388     | 7.6388     | 7.6388     |   0.0 | 77.63
Bond    | 0.4116     | 0.4116     | 0.4116     |   0.0 |  4.18
Neigh   | 0.012626   | 0.012626   | 0.012626   |   0.0 |  0.13
Comm    | 0.25713    | 0.25713    | 0.25713    |   0.0 |  2.61
Output  | 0.11932    | 0.11932    | 0.11932    |   0.0 |  1.21
Modify  | 1.1253     | 1.1253     | 1.1253     |   0.0 | 11.44
Other   |            | 0.2758     |            |       |  2.80

Nlocal:             10 ave          10 max          10 min
Histogram: 1 0 0 0 0 0 0 0 0 0
Nghost:              0 ave           0 max           0 min
Histogram: 1 0 0 0 0 0 0 0 0 0
Neighs:             37 ave          37 max          37 min
Histogram: 1 0 0 0 0 0 0 0 0 0

Total # of neighbors = 37
Ave neighs/atom = 3.7
Ave special neighs/atom = 3.6
Neighbor list builds = 1000
Dangerous builds = 0
System init for write_data ...
Generated 0 of 6 mixed pair_coeff terms from geometric mixing rule
Total wall time: 0:00:09
