LAMMPS (17 Apr 2024)
  using 1 OpenMP thread(s) per MPI task
WARNING: Atom style hybrid defines both, per-type and per-atom masses; both must be set, but only per-atom masses will be used (src/atom_vec_hybrid.cpp:132)
Reading data file ...
  orthogonal box = (-170 -170 -170) to (170 170 170)
  1 by 2 by 2 MPI processor grid
  reading atoms ...
  10 atoms
  reading velocities ...
  10 velocities
  scanning bonds ...
  1 = max bonds/atom
  10 ellipsoids
  orthogonal box = (-170 -170 -170) to (170 170 170)
  1 by 2 by 2 MPI processor grid
  reading bonds ...
  8 bonds
Finding 1-2 1-3 1-4 neighbors ...
  special bond factors lj:    0        0        0       
  special bond factors coul:  0        0        0       
     2 = max # of 1-2 neighbors
     2 = max # of 1-3 neighbors
     2 = max # of 1-4 neighbors
     4 = max # of special neighbors
  special bonds CPU = 0.001 seconds
  read_data CPU = 0.008 seconds
Setting atom values ...
  10 settings made for mass
10 atoms in group all
Reading oxdna potential (fene) file oxdna.real with DATE: 2024-04-26
Finding 1-2 1-3 1-4 neighbors ...
  special bond factors lj:    0        1        1       
  special bond factors coul:  0        0        0       
     2 = max # of 1-2 neighbors
     2 = max # of 1-3 neighbors
     2 = max # of 1-4 neighbors
     4 = max # of special neighbors
  special bonds CPU = 0.000 seconds
Reading oxdna potential (excv) file oxdna.real with DATE: 2024-04-26
Reading oxdna potential (stk) file oxdna.real with DATE: 2024-04-26
Reading oxdna potential (hbond) file oxdna.real with DATE: 2024-04-26
Reading oxdna potential (hbond) file oxdna.real with DATE: 2024-04-26
Reading oxdna potential (hbond) file oxdna.real with DATE: 2024-04-26
Reading oxdna potential (xstk) file oxdna.real with DATE: 2024-04-26
Reading oxdna potential (coaxstk) file oxdna.real with DATE: 2024-04-26
Generated 0 of 6 mixed pair_coeff terms from geometric mixing rule
Neighbor list info ...
  update: every = 1 steps, delay = 0 steps, check = yes
  max neighbors/atom: 2000, page size: 100000
  master list distance cutoff = 25.179212
  ghost atom cutoff = 32.4
  binsize = 12.589606, bins = 28 28 28
  4 neighbor lists, perpetual/occasional/extra = 4 0 0
  (1) pair oxdna/excv, perpetual
      attributes: half, newton on
      pair build: half/bin/newton
      stencil: half/bin/3d
      bin: standard
  (2) pair oxdna/hbond, perpetual, copy from (1)
      attributes: half, newton on
      pair build: copy
      stencil: none
      bin: none
  (3) pair oxdna/xstk, perpetual, copy from (1)
      attributes: half, newton on
      pair build: copy
      stencil: none
      bin: none
  (4) pair oxdna/coaxstk, perpetual, copy from (1)
      attributes: half, newton on
      pair build: copy
      stencil: none
      bin: none
Setting up Verlet run ...
  Unit style    : real
  Current step  : 0
  Time step     : 0.01706
0  ekin = 6.60687273927977 |  erot = 16.7817849122513 | epot = -77.8452930576479 | etot = -54.4566354061168
Per MPI rank memory allocation (min/avg/max) = 7.105 | 7.11 | 7.116 Mbytes
   Step          Temp          E_pair         E_mol          TotEng         Press          Volume    
         0   246.27432     -80.414328      2.5690347     -71.23842      -0.031164648    39304000     
1000  ekin = 6.43820748574481 |  erot = 17.3362209220524 | epot = -78.2310638156467 | etot = -54.4566354078494
2000  ekin = 6.25962687713457 |  erot = 17.7614973153004 | epot = -78.4777596014537 | etot = -54.4566354090187
3000  ekin = 6.07700448778499 |  erot = 18.0349390575317 | epot = -78.5685789546716 | etot = -54.4566354093549
4000  ekin = 5.89744243690135 |  erot = 18.1444655563223 | epot = -78.4985434019984 | etot = -54.4566354087747
5000  ekin = 5.72921495795417 |  erot = 18.089813534545 | epot = -78.2756638998997 | etot = -54.4566354074005
6000  ekin = 5.58102962967702 |  erot = 17.8818907378652 | epot = -77.9195557730909 | etot = -54.4566354055487
7000  ekin = 5.46083564262917 |  erot = 17.5394365844243 | epot = -77.4569076305326 | etot = -54.4566354034791
8000  ekin = 5.37466374419897 |  erot = 17.0860544650632 | epot = -76.9173536106637 | etot = -54.4566354014016
9000  ekin = 5.32595754281565 |  erot = 16.5482852541265 | epot = -76.3308781963651 | etot = -54.456635399423
10000  ekin = 5.31554676342212 |  erot = 15.9544138469034 | epot = -75.726596007792 | etot = -54.4566353974665
   10000   352.42265     -75.546285      2.0131342     -64.078606     -0.0098335381   39304000     
Loop time of 10.2487 on 4 procs for 1000000 steps with 10 atoms

Performance: 143.822 ns/day, 0.167 hours/ns, 97573.589 timesteps/s, 975.736 katom-step/s
99.9% CPU use with 4 MPI tasks x 1 OpenMP threads

MPI task timing breakdown:
Section |  min time  |  avg time  |  max time  |%varavg| %total
---------------------------------------------------------------
Pair    | 3.464      | 4.1822     | 5.9402     |  50.2 | 40.81
Bond    | 0.13841    | 0.18486    | 0.23656    |   8.9 |  1.80
Neigh   | 0.006895   | 0.006952   | 0.007001   |   0.1 |  0.07
Comm    | 2.2239     | 4.2461     | 5.1692     |  57.6 | 41.43
Output  | 0.059508   | 0.061929   | 0.066381   |   1.1 |  0.60
Modify  | 0.37634    | 0.4606     | 0.52884    |  10.0 |  4.49
Other   |            | 1.106      |            |       | 10.79

Nlocal:            2.5 ave           4 max           1 min
Histogram: 2 0 0 0 0 0 0 0 0 2
Nghost:            7.5 ave           9 max           6 min
Histogram: 2 0 0 0 0 0 0 0 0 2
Neighs:           9.25 ave          19 max           5 min
Histogram: 2 1 0 0 0 0 0 0 0 1

Total # of neighbors = 37
Ave neighs/atom = 3.7
Ave special neighs/atom = 3.6
Neighbor list builds = 1000
Dangerous builds = 0
System init for write_data ...
Generated 0 of 6 mixed pair_coeff terms from geometric mixing rule
Total wall time: 0:00:10
