LAMMPS (30 Mar 2026)
variable number	equal 2
variable ofreq	equal 1000
variable efreq	equal 1000
variable T      equal 0.1

units lj

dimension 3

newton on

boundary  p p p

atom_style hybrid bond ellipsoid oxdna
WARNING: Atom style hybrid defines both, per-type and per-atom masses; both must be set, but only per-atom masses will be used (../atom_vec_hybrid.cpp:132)
atom_modify sort 0 1.0

# Pair interactions require lists of neighbours to be calculated
neighbor 2.0 bin
neigh_modify every 1 delay 0 check yes

read_data data.duplex2
Reading data file ...
  orthogonal box = (-20 -20 -20) to (20 20 20)
  1 by 2 by 2 MPI processor grid
  reading atoms ...
  16 atoms
  reading velocities ...
  16 velocities
  scanning bonds ...
  1 = max bonds/atom
  16 ellipsoids
  orthogonal box = (-20 -20 -20) to (20 20 20)
  1 by 2 by 2 MPI processor grid
  reading bonds ...
  13 bonds
Finding 1-2 1-3 1-4 neighbors ...
  special bond factors lj:    0        0        0       
  special bond factors coul:  0        0        0       
     2 = max # of 1-2 neighbors
     2 = max # of 1-3 neighbors
     4 = max # of 1-4 neighbors
     6 = max # of special neighbors
  special bonds CPU = 0.000 seconds
  read_data CPU = 0.001 seconds

set atom * mass 3.1575
Setting atom values ...
  16 settings made for mass

group all type 1 4
16 atoms in group all

# oxDNA bond interactions - FENE backbone
bond_style oxdna/fene
bond_coeff * 2.0 0.25 0.7525
special_bonds lj 0 1 1
Finding 1-2 1-3 1-4 neighbors ...
  special bond factors lj:    0        1        1       
  special bond factors coul:  0        0        0       
     2 = max # of 1-2 neighbors
     2 = max # of 1-3 neighbors
     4 = max # of 1-4 neighbors
     6 = max # of special neighbors
  special bonds CPU = 0.000 seconds

# oxDNA pair interactions
pair_style hybrid/overlay oxdna/excv oxdna/stk oxdna/hbond oxdna/xstk oxdna/coaxstk
pair_coeff * * oxdna/excv    2.0 0.7 0.675 2.0 0.515 0.5 2.0 0.33 0.32
pair_coeff * * oxdna/stk     seqav ${T} 1.3448 2.6568 6.0 0.4 0.9 0.32 0.75 1.3 0 0.8 0.9 0 0.95 0.9 0 0.95 2.0 0.65 2.0 0.65
pair_coeff * * oxdna/stk     seqav 0.1 1.3448 2.6568 6.0 0.4 0.9 0.32 0.75 1.3 0 0.8 0.9 0 0.95 0.9 0 0.95 2.0 0.65 2.0 0.65
pair_coeff * * oxdna/hbond   seqav 0.0   8.0 0.4 0.75 0.34 0.7 1.5 0 0.7 1.5 0 0.7 1.5 0 0.7 0.46 3.141592653589793 0.7 4.0 1.5707963267948966 0.45 4.0 1.5707963267948966 0.45
pair_coeff 1 4 oxdna/hbond   seqav 1.077 8.0 0.4 0.75 0.34 0.7 1.5 0 0.7 1.5 0 0.7 1.5 0 0.7 0.46 3.141592653589793 0.7 4.0 1.5707963267948966 0.45 4.0 1.5707963267948966 0.45
pair_coeff 2 3 oxdna/hbond   seqav 1.077 8.0 0.4 0.75 0.34 0.7 1.5 0 0.7 1.5 0 0.7 1.5 0 0.7 0.46 3.141592653589793 0.7 4.0 1.5707963267948966 0.45 4.0 1.5707963267948966 0.45
pair_coeff * * oxdna/xstk    47.5 0.575 0.675 0.495 0.655 2.25 0.791592653589793 0.58 1.7 1.0 0.68 1.7 1.0 0.68 1.5 0 0.65 1.7 0.875 0.68 1.7 0.875 0.68
pair_coeff * * oxdna/coaxstk 46.0 0.4 0.6 0.22 0.58 2.0 2.541592653589793 0.65 1.3 0 0.8 0.9 0 0.95 0.9 0 0.95 2.0 -0.65 2.0 -0.65

# NVE ensemble
fix 1 all nve/asphere
#fix 2 all langevin ${T} ${T} 2.5 457145 angmom 10

timestep 1e-5

#comm_style tiled
fix 3 all balance 1000 1.03 shift xyz 10 1.03
comm_modify cutoff 3.8

compute quat all property/atom quatw quati quatj quatk

compute erot all erotate/asphere
compute ekin all ke
compute epot all pe
variable erot equal c_erot
variable ekin equal c_ekin
variable epot equal c_epot
variable etot equal c_erot+c_ekin+c_epot
fix 5 all print ${efreq} "$(step)  ekin = ${ekin} |  erot = ${erot} | epot = ${epot} | etot = ${etot}" screen yes
fix 5 all print 1000 "$(step)  ekin = ${ekin} |  erot = ${erot} | epot = ${epot} | etot = ${etot}" screen yes

dump out all custom ${ofreq} out.${number}.lammpstrj id mol type x y z ix iy iz vx vy vz c_quat[1] c_quat[2] c_quat[3] c_quat[4] angmomx angmomy angmomz
dump out all custom 1000 out.${number}.lammpstrj id mol type x y z ix iy iz vx vy vz c_quat[1] c_quat[2] c_quat[3] c_quat[4] angmomx angmomy angmomz
dump out all custom 1000 out.2.lammpstrj id mol type x y z ix iy iz vx vy vz c_quat[1] c_quat[2] c_quat[3] c_quat[4] angmomx angmomy angmomz
dump_modify out sort id
dump_modify out format line "%d %d %d  %22.15le %22.15le %22.15le  %d %d %d  %22.15le %22.15le %22.15le  %22.15le %22.15le %22.15le %22.15le  %22.15le %22.15le %22.15le"

run 10000
Parsing normal base pairing
Generated 0 of 6 mixed pair_coeff terms from geometric mixing rule
Neighbor list info ...
  update: every = 1 steps, delay = 0 steps, check = yes
  max neighbors/atom: 2000, page size: 100000
  master list distance cutoff = 2.9560004
  ghost atom cutoff = 3.8
  binsize = 1.4780002, bins = 28 28 28
  4 neighbor lists, perpetual/occasional/extra = 4 0 0
  (1) pair oxdna/excv, perpetual
      attributes: half, newton on
      pair build: half/bin/newton
      stencil: half/bin/3d
      bin: standard
  (2) pair oxdna/hbond, perpetual, copy from (1)
      attributes: half, newton on
      pair build: copy
      stencil: none
      bin: none
  (3) pair oxdna/xstk, perpetual, copy from (1)
      attributes: half, newton on
      pair build: copy
      stencil: none
      bin: none
  (4) pair oxdna/coaxstk, perpetual, copy from (1)
      attributes: half, newton on
      pair build: copy
      stencil: none
      bin: none
0  ekin = 2.70475393009871 |  erot = 2.80172072918779 | epot = -21.9967648054699 | etot = -16.4902901461834
Per MPI rank memory allocation (min/avg/max) = 8.482 | 8.514 | 8.594 Mbytes
   Step          Temp          E_pair         E_mol          TotEng         Press          Volume    
         0   0.12021129    -1.3914531      0.016655298   -1.2057507      5.174549e-05   64000        
1000  ekin = 2.64741351516601 |  erot = 2.68046818479631 | epot = -21.8181718453114 | etot = -16.4902901453491
2000  ekin = 2.58678890015215 |  erot = 2.56753070768389 | epot = -21.6446097523817 | etot = -16.4902901445456
3000  ekin = 2.52575425770962 |  erot = 2.47128610151085 | epot = -21.4873305031596 | etot = -16.4902901439392
4000  ekin = 2.46691646976042 |  erot = 2.39786534177344 | epot = -21.3550719550664 | etot = -16.4902901435325
5000  ekin = 2.36865700652009 |  erot = 2.3494579833399 | epot = -21.2084050972921 | etot = -16.4902901074321
6000  ekin = 2.30459549691593 |  erot = 2.42261060162515 | epot = -21.2174962344054 | etot = -16.4902901358643
7000  ekin = 2.29774907973818 |  erot = 2.4609507976072 | epot = -21.2489900061223 | etot = -16.4902901287769
8000  ekin = 2.29833688809547 |  erot = 2.50938268365248 | epot = -21.2980097013972 | etot = -16.4902901296493
9000  ekin = 2.30371485504362 |  erot = 2.56609309739841 | epot = -21.3600980829834 | etot = -16.4902901305414
10000  ekin = 2.31000457983787 |  erot = 2.62208984971805 | epot = -21.4223845608654 | etot = -16.4902901313094
     10000   0.10266687    -1.3594012      0.020502214   -1.1945237     -2.12931e-05    64000        
Loop time of 0.0650665 on 4 procs for 10000 steps with 16 atoms

Performance: 132787.225 tau/day, 153688.918 timesteps/s, 2.459 Matom-step/s
99.9% CPU use with 4 MPI tasks x no OpenMP threads

MPI task timing breakdown:
Section |  min time  |  avg time  |  max time  |%varavg| %total
---------------------------------------------------------------
Pair    | 0.008244   | 0.020121   | 0.025965   |   4.9 | 30.92
Bond    | 0.000561   | 0.0011228  | 0.001716   |   1.2 |  1.73
Neigh   | 5.6e-05    | 5.65e-05   | 5.7e-05    |   0.0 |  0.09
Comm    | 0.017272   | 0.024462   | 0.037147   |   4.8 | 37.59
Output  | 0.000295   | 0.000313   | 0.00035    |   0.0 |  0.48
Modify  | 0.013707   | 0.014127   | 0.014622   |   0.3 | 21.71
Other   |            | 0.004865   |            |       |  7.48

Nlocal:              4 ave           5 max           3 min
Histogram: 2 0 0 0 0 0 0 0 0 2
Nghost:             12 ave          13 max          11 min
Histogram: 2 0 0 0 0 0 0 0 0 2
Neighs:          29.25 ave          51 max           7 min
Histogram: 1 0 0 1 0 0 1 0 0 1

Total # of neighbors = 117
Ave neighs/atom = 7.3125
Ave special neighs/atom = 3.75
Neighbor list builds = 10
Dangerous builds = 0

write_data last_config.${number}.* nocoeff
write_data last_config.2.* nocoeff
System init for write_data ...
Parsing normal base pairing
Generated 0 of 6 mixed pair_coeff terms from geometric mixing rule
#write_restart last_config.${number}.*
Total wall time: 0:00:00
