LAMMPS (29 Sep 2021)
variable number	equal 4
variable ofreq	equal 100
variable efreq	equal 100

variable ntype equal 4

variable T equal 0.1
variable rhos   equal 0.2

units lj

dimension 3

newton on

boundary  p p p

atom_style hybrid bond ellipsoid oxdna
WARNING: Atom style hybrid defines both, per-type and per-atom masses; both must be set, but only per-atom masses will be used (../atom_vec_hybrid.cpp:157)
atom_modify sort 0 1.0

# Pair interactions require lists of neighbours to be calculated
neighbor 2.0 bin
neigh_modify every 10 delay 0 check yes

read_data data.duplex4.4type
Reading data file ...
  orthogonal box = (-20.000000 -20.000000 -20.000000) to (20.000000 20.000000 20.000000)
  1 by 1 by 1 MPI processor grid
  reading atoms ...
  26 atoms
  reading velocities ...
  26 velocities
  scanning bonds ...
  1 = max bonds/atom
  26 ellipsoids
  reading bonds ...
  24 bonds
Finding 1-2 1-3 1-4 neighbors ...
  special bond factors lj:    0        0        0       
  special bond factors coul:  0        0        0       
     2 = max # of 1-2 neighbors
     2 = max # of 1-3 neighbors
     4 = max # of 1-4 neighbors
     6 = max # of special neighbors
  special bonds CPU = 0.000 seconds
  read_data CPU = 0.001 seconds

mass * 3.1575           # sets per-type mass if not in data file
set atom * mass 3.1575  # sets per-atom mass
Setting atom values ...
  26 settings made for mass

group all type 1 4
26 atoms in group all

# oxDNA2 bond interactions - FENE backbone
bond_style oxdna2/fene
bond_coeff * 2.0 0.25 0.7564
special_bonds lj 0 1 1
Finding 1-2 1-3 1-4 neighbors ...
  special bond factors lj:    0        1        1       
  special bond factors coul:  0        0        0       
     2 = max # of 1-2 neighbors
     2 = max # of 1-3 neighbors
     4 = max # of 1-4 neighbors
     6 = max # of special neighbors
  special bonds CPU = 0.000 seconds

# oxDNA pair interactions
pair_style hybrid/overlay oxdna2/excv oxdna2/stk oxdna2/hbond oxdna2/xstk oxdna2/coaxstk oxdna2/dh
pair_coeff * * oxdna2/excv    2.0 0.7 0.675 2.0 0.515 0.5 2.0 0.33 0.32
pair_coeff * * oxdna2/stk     seqdep ${T} 1.3523 2.6717 6.0 0.4 0.9 0.32 0.75 1.3 0 0.8 0.9 0 0.95 0.9 0 0.95 2.0 0.65 2.0 0.65
pair_coeff * * oxdna2/stk     seqdep 0.1 1.3523 2.6717 6.0 0.4 0.9 0.32 0.75 1.3 0 0.8 0.9 0 0.95 0.9 0 0.95 2.0 0.65 2.0 0.65
pair_coeff * * oxdna2/hbond   seqdep 0.0 8.0 0.4 0.75 0.34 0.7 1.5 0 0.7 1.5 0 0.7 1.5 0 0.7 0.46 3.141592653589793 0.7 4.0 1.5707963267948966 0.45 4.0 1.5707963267948966 0.45

label loop
variable base loop ${ntype}
variable base loop 4
  variable basemod equal ${base}%4
  variable basemod equal 1%4
  if "${basemod} == 1" then     "variable comp equal ${base}+3"     "pair_coeff ${base} ${comp} oxdna2/hbond   seqdep 1.0678 8.0 0.4 0.75 0.34 0.7 1.5 0 0.7 1.5 0 0.7 1.5 0 0.7 0.46 3.141592653589793 0.7 4.0 1.5707963267948966 0.45 4.0 1.5707963267948966 0.45"
variable comp equal ${base}+3
variable comp equal 1+3
pair_coeff ${base} ${comp} oxdna2/hbond   seqdep 1.0678 8.0 0.4 0.75 0.34 0.7 1.5 0 0.7 1.5 0 0.7 1.5 0 0.7 0.46 3.141592653589793 0.7 4.0 1.5707963267948966 0.45 4.0 1.5707963267948966 0.45
pair_coeff 1 ${comp} oxdna2/hbond   seqdep 1.0678 8.0 0.4 0.75 0.34 0.7 1.5 0 0.7 1.5 0 0.7 1.5 0 0.7 0.46 3.141592653589793 0.7 4.0 1.5707963267948966 0.45 4.0 1.5707963267948966 0.45
pair_coeff 1 4 oxdna2/hbond   seqdep 1.0678 8.0 0.4 0.75 0.34 0.7 1.5 0 0.7 1.5 0 0.7 1.5 0 0.7 0.46 3.141592653589793 0.7 4.0 1.5707963267948966 0.45 4.0 1.5707963267948966 0.45
  if "${basemod} == 2" then     "variable comp equal ${base}+1"     "pair_coeff ${base} ${comp} oxdna2/hbond   seqdep 1.0678 8.0 0.4 0.75 0.34 0.7 1.5 0 0.7 1.5 0 0.7 1.5 0 0.7 0.46 3.141592653589793 0.7 4.0 1.5707963267948966 0.45 4.0 1.5707963267948966 0.45"
next base
jump in.duplex4.4type loop
variable base loop ${ntype}
variable base loop 4
  variable basemod equal ${base}%4
  variable basemod equal 2%4
  if "${basemod} == 1" then     "variable comp equal ${base}+3"     "pair_coeff ${base} ${comp} oxdna2/hbond   seqdep 1.0678 8.0 0.4 0.75 0.34 0.7 1.5 0 0.7 1.5 0 0.7 1.5 0 0.7 0.46 3.141592653589793 0.7 4.0 1.5707963267948966 0.45 4.0 1.5707963267948966 0.45"
  if "${basemod} == 2" then     "variable comp equal ${base}+1"     "pair_coeff ${base} ${comp} oxdna2/hbond   seqdep 1.0678 8.0 0.4 0.75 0.34 0.7 1.5 0 0.7 1.5 0 0.7 1.5 0 0.7 0.46 3.141592653589793 0.7 4.0 1.5707963267948966 0.45 4.0 1.5707963267948966 0.45"
variable comp equal ${base}+1
variable comp equal 2+1
pair_coeff ${base} ${comp} oxdna2/hbond   seqdep 1.0678 8.0 0.4 0.75 0.34 0.7 1.5 0 0.7 1.5 0 0.7 1.5 0 0.7 0.46 3.141592653589793 0.7 4.0 1.5707963267948966 0.45 4.0 1.5707963267948966 0.45
pair_coeff 2 ${comp} oxdna2/hbond   seqdep 1.0678 8.0 0.4 0.75 0.34 0.7 1.5 0 0.7 1.5 0 0.7 1.5 0 0.7 0.46 3.141592653589793 0.7 4.0 1.5707963267948966 0.45 4.0 1.5707963267948966 0.45
pair_coeff 2 3 oxdna2/hbond   seqdep 1.0678 8.0 0.4 0.75 0.34 0.7 1.5 0 0.7 1.5 0 0.7 1.5 0 0.7 0.46 3.141592653589793 0.7 4.0 1.5707963267948966 0.45 4.0 1.5707963267948966 0.45
next base
jump in.duplex4.4type loop
variable base loop ${ntype}
variable base loop 4
  variable basemod equal ${base}%4
  variable basemod equal 3%4
  if "${basemod} == 1" then     "variable comp equal ${base}+3"     "pair_coeff ${base} ${comp} oxdna2/hbond   seqdep 1.0678 8.0 0.4 0.75 0.34 0.7 1.5 0 0.7 1.5 0 0.7 1.5 0 0.7 0.46 3.141592653589793 0.7 4.0 1.5707963267948966 0.45 4.0 1.5707963267948966 0.45"
  if "${basemod} == 2" then     "variable comp equal ${base}+1"     "pair_coeff ${base} ${comp} oxdna2/hbond   seqdep 1.0678 8.0 0.4 0.75 0.34 0.7 1.5 0 0.7 1.5 0 0.7 1.5 0 0.7 0.46 3.141592653589793 0.7 4.0 1.5707963267948966 0.45 4.0 1.5707963267948966 0.45"
next base
jump in.duplex4.4type loop
variable base loop ${ntype}
variable base loop 4
  variable basemod equal ${base}%4
  variable basemod equal 4%4
  if "${basemod} == 1" then     "variable comp equal ${base}+3"     "pair_coeff ${base} ${comp} oxdna2/hbond   seqdep 1.0678 8.0 0.4 0.75 0.34 0.7 1.5 0 0.7 1.5 0 0.7 1.5 0 0.7 0.46 3.141592653589793 0.7 4.0 1.5707963267948966 0.45 4.0 1.5707963267948966 0.45"
  if "${basemod} == 2" then     "variable comp equal ${base}+1"     "pair_coeff ${base} ${comp} oxdna2/hbond   seqdep 1.0678 8.0 0.4 0.75 0.34 0.7 1.5 0 0.7 1.5 0 0.7 1.5 0 0.7 0.46 3.141592653589793 0.7 4.0 1.5707963267948966 0.45 4.0 1.5707963267948966 0.45"
next base
jump in.duplex4.4type loop

pair_coeff * * oxdna2/xstk    47.5 0.575 0.675 0.495 0.655 2.25 0.791592653589793 0.58 1.7 1.0 0.68 1.7 1.0 0.68 1.5 0 0.65 1.7 0.875 0.68 1.7 0.875 0.68
pair_coeff * * oxdna2/coaxstk 58.5 0.4 0.6 0.22 0.58 2.0 2.891592653589793 0.65 1.3 0 0.8 0.9 0 0.95 0.9 0 0.95 40.0 3.116592653589793
pair_coeff * * oxdna2/dh      ${T} ${rhos} 0.815
pair_coeff * * oxdna2/dh      0.1 ${rhos} 0.815
pair_coeff * * oxdna2/dh      0.1 0.2 0.815

# Langevin dynamics
fix 1 all nve/asphere
fix 2 all langevin ${T} ${T} 2.5 457145 angmom 10
fix 2 all langevin 0.1 ${T} 2.5 457145 angmom 10
fix 2 all langevin 0.1 0.1 2.5 457145 angmom 10

timestep 1e-5

#comm_style tiled
fix 3 all balance 1000 1.03 shift xyz 10 1.03
comm_modify cutoff 3.8

compute quat all property/atom quatw quati quatj quatk

compute erot all erotate/asphere
compute ekin all ke
compute epot all pe
variable erot equal c_erot
variable ekin equal c_ekin
variable epot equal c_epot
variable etot equal c_erot+c_ekin+c_epot
fix 5 all print ${efreq} "$(step)  ekin = ${ekin} |  erot = ${erot} | epot = ${epot} | etot = ${etot}" screen yes
fix 5 all print 100 "$(step)  ekin = ${ekin} |  erot = ${erot} | epot = ${epot} | etot = ${etot}" screen yes

dump out all custom ${ofreq} out.${number}.lammpstrj id mol type x y z ix iy iz vx vy vz c_quat[1] c_quat[2] c_quat[3] c_quat[4] angmomx angmomy angmomz
dump out all custom 100 out.${number}.lammpstrj id mol type x y z ix iy iz vx vy vz c_quat[1] c_quat[2] c_quat[3] c_quat[4] angmomx angmomy angmomz
dump out all custom 100 out.4.lammpstrj id mol type x y z ix iy iz vx vy vz c_quat[1] c_quat[2] c_quat[3] c_quat[4] angmomx angmomy angmomz
dump_modify out sort id
dump_modify out format line "%d %d %d  %22.15le %22.15le %22.15le  %d %d %d  %22.15le %22.15le %22.15le  %22.15le %22.15le %22.15le %22.15le  %22.15le %22.15le %22.15le"

run 1000
Neighbor list info ...
  update every 10 steps, delay 0 steps, check yes
  max neighbors/atom: 2000, page size: 100000
  master list distance cutoff = 5.6389877
  ghost atom cutoff = 5.6389877
  binsize = 2.8194939, bins = 15 15 15
  5 neighbor lists, perpetual/occasional/extra = 5 0 0
  (1) pair oxdna2/excv, perpetual
      attributes: half, newton on
      pair build: half/bin/newton
      stencil: half/bin/3d
      bin: standard
  (2) pair oxdna2/hbond, perpetual, copy from (1)
      attributes: half, newton on
      pair build: copy
      stencil: none
      bin: none
  (3) pair oxdna2/xstk, perpetual, copy from (1)
      attributes: half, newton on
      pair build: copy
      stencil: none
      bin: none
  (4) pair oxdna2/coaxstk, perpetual, copy from (1)
      attributes: half, newton on
      pair build: copy
      stencil: none
      bin: none
  (5) pair oxdna2/dh, perpetual, copy from (1)
      attributes: half, newton on
      pair build: copy
      stencil: none
      bin: none
WARNING: Communication cutoff adjusted to 5.638987723814633 (../comm.cpp:739)
0  ekin = 3.74991604702378 |  erot = 3.45272678980464 | epot = -37.374200901142 | etot = -30.1715580643136
Per MPI rank memory allocation (min/avg/max) = 9.328 | 9.328 | 9.328 Mbytes
Step Temp E_pair E_mol TotEng Press Volume 
       0  0.099997761   -1.4717559   0.03428661   -1.2932417 5.6146609e-05        64000 
100  ekin = 3.76288917169405 |  erot = 3.46242186163156 | epot = -37.3828221368588 | etot = -30.1575111035332
200  ekin = 3.76854222932535 |  erot = 3.4325152195488 | epot = -37.3917750769569 | etot = -30.1907176280828
300  ekin = 3.7733498203503 |  erot = 3.41735630149052 | epot = -37.4015041101712 | etot = -30.2107979883304
400  ekin = 3.78467310542329 |  erot = 3.41337905183347 | epot = -37.4113338554367 | etot = -30.2132816981799
500  ekin = 3.78875402492327 |  erot = 3.38050218850488 | epot = -37.4216042439365 | etot = -30.2523480305083
600  ekin = 3.84054140342509 |  erot = 3.39806928124528 | epot = -37.4319051505875 | etot = -30.1932944659172
700  ekin = 3.85623015763729 |  erot = 3.3820990039874 | epot = -37.4422378752379 | etot = -30.2039087136132
800  ekin = 3.83030593841711 |  erot = 3.41094942112692 | epot = -37.4522028906203 | etot = -30.2109475310763
900  ekin = 3.8083217031519 |  erot = 3.50809711501386 | epot = -37.462643885747 | etot = -30.1462250675813
1000  ekin = 3.83184879800819 |  erot = 3.50203401022062 | epot = -37.4730508915114 | etot = -30.1391680832826
    1000   0.10218263   -1.4751963  0.033925074   -1.2938924 4.2545226e-05        64000 
Loop time of 0.027507 on 1 procs for 1000 steps with 26 atoms

Performance: 31410.186 tau/day, 36354.383 timesteps/s
99.5% CPU use with 1 MPI tasks x no OpenMP threads

MPI task timing breakdown:
Section |  min time  |  avg time  |  max time  |%varavg| %total
---------------------------------------------------------------
Pair    | 0.022175   | 0.022175   | 0.022175   |   0.0 | 80.62
Bond    | 0.000541   | 0.000541   | 0.000541   |   0.0 |  1.97
Neigh   | 8e-06      | 8e-06      | 8e-06      |   0.0 |  0.03
Comm    | 0.000119   | 0.000119   | 0.000119   |   0.0 |  0.43
Output  | 0.001187   | 0.001187   | 0.001187   |   0.0 |  4.32
Modify  | 0.003348   | 0.003348   | 0.003348   |   0.0 | 12.17
Other   |            | 0.000129   |            |       |  0.47

Nlocal:        26.0000 ave          26 max          26 min
Histogram: 1 0 0 0 0 0 0 0 0 0
Nghost:         0.00000 ave           0 max           0 min
Histogram: 1 0 0 0 0 0 0 0 0 0
Neighs:        301.000 ave         301 max         301 min
Histogram: 1 0 0 0 0 0 0 0 0 0

Total # of neighbors = 301
Ave neighs/atom = 11.576923
Ave special neighs/atom = 5.0769231
Neighbor list builds = 1
Dangerous builds = 0

write_data last_config.${number}.* nocoeff
write_data last_config.4.* nocoeff
System init for write_data ...
#write_restart last_config.${number}.*
Total wall time: 0:00:00
