LAMMPS (30 Mar 2026)
variable number	equal 6
variable ofreq	equal 1000
variable efreq	equal 100
variable T      equal 0.1
variable rhos   equal 0.2
variable nsteps equal 500000

units lj

dimension 3

newton on

boundary  p p p

atom_style hybrid bond ellipsoid oxdna
WARNING: Atom style hybrid defines both, per-type and per-atom masses; both must be set, but only per-atom masses will be used (../atom_vec_hybrid.cpp:132)
atom_modify sort 0 1.0

# Pair interactions require lists of neighbours to be calculated
neighbor 2.0 bin
neigh_modify every 1 delay 0 check yes

fix Basepairs all property/atom i_idc ghost yes
read_data data.dsring2 fix Basepairs NULL Basepairs
Reading data file ...
  orthogonal box = (0 0 0) to (100 100 100)
  2 by 2 by 2 MPI processor grid
  reading atoms ...
  148 atoms
  reading velocities ...
  148 velocities
  scanning bonds ...
  1 = max bonds/atom
  148 ellipsoids
  orthogonal box = (0 0 0) to (100 100 100)
  2 by 2 by 2 MPI processor grid
  reading bonds ...
  148 bonds
Finding 1-2 1-3 1-4 neighbors ...
  special bond factors lj:    0        0        0       
  special bond factors coul:  0        0        0       
     2 = max # of 1-2 neighbors
     2 = max # of 1-3 neighbors
     4 = max # of 1-4 neighbors
     6 = max # of special neighbors
  special bonds CPU = 0.000 seconds
  read_data CPU = 0.004 seconds

set atom * mass 3.1575
Setting atom values ...
  148 settings made for mass

group all type 1 4
148 atoms in group all

# oxDNA3 bond interactions - FENE backbone
bond_style hybrid oxdna3/fene
bond_coeff * oxdna3/fene oxdna3_lj.cgdna
Reading oxdna3 potential (fene) file oxdna3_lj.cgdna with DATE: 2026-03-26
special_bonds lj 0 1 1
Finding 1-2 1-3 1-4 neighbors ...
  special bond factors lj:    0        1        1       
  special bond factors coul:  0        0        0       
     2 = max # of 1-2 neighbors
     2 = max # of 1-3 neighbors
     4 = max # of 1-4 neighbors
     6 = max # of special neighbors
  special bonds CPU = 0.000 seconds

# oxDNA3 pair interactions
pair_style hybrid/overlay oxdna3/excv oxdna3/stk oxdna3/hbond oxdna3/xstk oxdna3/coaxstk oxdna3/dh
pair_coeff * * oxdna3/excv     oxdna3_lj.cgdna
Reading oxdna3 potential (excv) file oxdna3_lj.cgdna with DATE: 2026-03-26
pair_coeff * * oxdna3/stk      ${T} oxdna3_lj.cgdna
pair_coeff * * oxdna3/stk      0.1 oxdna3_lj.cgdna
Reading oxdna3 potential (stk) file oxdna3_lj.cgdna with DATE: 2026-03-26
pair_coeff * * oxdna3/hbond    oxdna3_lj.cgdna
Reading oxdna3 potential (hbond) file oxdna3_lj.cgdna with DATE: 2026-03-26
pair_coeff 1 4 oxdna3/hbond    oxdna3_lj.cgdna
Reading oxdna3 potential (hbond) file oxdna3_lj.cgdna with DATE: 2026-03-26
pair_coeff 2 3 oxdna3/hbond    oxdna3_lj.cgdna
Reading oxdna3 potential (hbond) file oxdna3_lj.cgdna with DATE: 2026-03-26
pair_coeff * * oxdna3/xstk     oxdna3_lj.cgdna
Reading oxdna3 potential (xstk) file oxdna3_lj.cgdna with DATE: 2026-03-26
pair_coeff * * oxdna3/coaxstk  oxdna3_lj.cgdna
Reading oxdna potential (coaxstk) file oxdna3_lj.cgdna with DATE: 2026-03-26
pair_coeff * * oxdna3/dh       ${T} ${rhos} oxdna2_lj.cgdna
pair_coeff * * oxdna3/dh       0.1 ${rhos} oxdna2_lj.cgdna 
pair_coeff * * oxdna3/dh       0.1 0.2 oxdna2_lj.cgdna 
Reading oxdna potential (dh) file oxdna2_lj.cgdna with DATE: 2026-03-04

# NVE ensemble
fix 1 all nve/asphere
fix 2 all langevin ${T} ${T} 2.5 457145 angmom 10
fix 2 all langevin 0.1 ${T} 2.5 457145 angmom 10
fix 2 all langevin 0.1 0.1 2.5 457145 angmom 10

timestep 5e-3

#comm_style tiled
fix 3 all balance 1000 1.03 shift xyz 10 1.03
comm_modify cutoff 5.8

compute quat all property/atom quatw quati quatj quatk

compute erot all erotate/asphere
compute ekin all ke
compute epot all pe

compute ebond all bond
compute eexcv all pair oxdna3/excv
compute estk  all pair oxdna3/stk
compute ehbond all pair oxdna3/hbond
compute exstk all pair oxdna3/xstk
compute ecoaxstk all pair oxdna3/coaxstk
compute edh all pair oxdna3/dh

variable erot equal c_erot
variable ekin equal c_ekin
variable edyn equal c_erot+c_ekin
variable epot equal c_epot
variable etot equal c_erot+c_ekin+c_epot

variable ebond equal c_ebond[1]
variable eexcv equal c_eexcv
variable estk equal c_estk
variable ehbond equal c_ehbond
variable exstk equal c_exstk
variable ecoaxstk equal c_ecoaxstk
variable edh equal c_edh

fix 5 all print ${efreq} "$(step)  ekin = ${ekin} |  erot = ${erot} | edyn = ${edyn} | ebond = ${ebond} | eexcv = ${eexcv} | estk = ${estk} | ehbond = ${ehbond} | exstk = ${exstk} | ecoaxstk = ${ecoaxstk} | edh = ${edh} | epot = ${epot} | etot = ${etot}" screen yes
fix 5 all print 100 "$(step)  ekin = ${ekin} |  erot = ${erot} | edyn = ${edyn} | ebond = ${ebond} | eexcv = ${eexcv} | estk = ${estk} | ehbond = ${ehbond} | exstk = ${exstk} | ecoaxstk = ${ecoaxstk} | edh = ${edh} | epot = ${epot} | etot = ${etot}" screen yes

dump out all custom ${ofreq} out.${number}.lammpstrj id mol type x y z ix iy iz vx vy vz c_quat[1] c_quat[2] c_quat[3] c_quat[4] angmomx angmomy angmomz
dump out all custom 1000 out.${number}.lammpstrj id mol type x y z ix iy iz vx vy vz c_quat[1] c_quat[2] c_quat[3] c_quat[4] angmomx angmomy angmomz
dump out all custom 1000 out.6.lammpstrj id mol type x y z ix iy iz vx vy vz c_quat[1] c_quat[2] c_quat[3] c_quat[4] angmomx angmomy angmomz
dump_modify out sort id
dump_modify out format line "%d %d %d  %22.15le %22.15le %22.15le  %d %d %d  %22.15le %22.15le %22.15le  %22.15le %22.15le %22.15le %22.15le  %22.15le %22.15le %22.15le"

run ${nsteps}
run 500000
Parsing unique base pairing
Generated 0 of 6 mixed pair_coeff terms from geometric mixing rule
Neighbor list info ...
  update: every = 1 steps, delay = 0 steps, check = yes
  max neighbors/atom: 2000, page size: 100000
  master list distance cutoff = 5.6389877
  ghost atom cutoff = 5.8
  binsize = 2.8194939, bins = 36 36 36
  5 neighbor lists, perpetual/occasional/extra = 5 0 0
  (1) pair oxdna3/excv, perpetual
      attributes: half, newton on
      pair build: half/bin/newton
      stencil: half/bin/3d
      bin: standard
  (2) pair oxdna3/hbond, perpetual, copy from (1)
      attributes: half, newton on
      pair build: copy
      stencil: none
      bin: none
  (3) pair oxdna3/xstk, perpetual, copy from (1)
      attributes: half, newton on
      pair build: copy
      stencil: none
      bin: none
  (4) pair oxdna3/coaxstk, perpetual, copy from (1)
      attributes: half, newton on
      pair build: copy
      stencil: none
      bin: none
  (5) pair oxdna3/dh, perpetual, copy from (1)
      attributes: half, newton on
      pair build: copy
      stencil: none
      bin: none
0  ekin = 19.744659331895 |  erot = 21.3988532109634 | edyn = 41.1435125428584 | ebond = 16.0026234405966 | eexcv = 0.858190096002843 | estk = -142.249092508165 | ehbond = 0 | exstk = -18.941998346777 | ecoaxstk = 0 | edh = 4.93216542191501 | epot = -139.398111896427 | etot = -98.2545993535688
Per MPI rank memory allocation (min/avg/max) = 8.928 | 8.963 | 9.037 Mbytes
   Step          Temp          E_pair         E_mol          TotEng         Press          Volume    
         0   0.08954494    -1.050005       0.10812583    -0.80846927     7.9575724e-05  1000000      
100  ekin = 23.7683675499191 |  erot = 23.8246974251973 | edyn = 47.5930649751164 | ebond = 8.73415699718032 | eexcv = 0.00860425395987338 | estk = -135.664574513544 | ehbond = -0.227064228798504 | exstk = -22.4969723925029 | ecoaxstk = 0 | edh = 4.91846062607718 | epot = -144.727389257628 | etot = -97.1343242825114
200  ekin = 22.64756418631 |  erot = 22.1206295564452 | edyn = 44.7681937427552 | ebond = 6.53487090397802 | eexcv = 0.073301793724617 | estk = -137.53432123937 | ehbond = -1.1940826663874 | exstk = -20.6633560158624 | ecoaxstk = 0 | edh = 5.04649024105478 | epot = -147.737096982863 | etot = -102.968903240108
300  ekin = 23.935802527179 |  erot = 19.809976474695 | edyn = 43.745779001874 | ebond = 7.1601927240455 | eexcv = 0.0998454339089372 | estk = -139.24282654741 | ehbond = -2.34562883316602 | exstk = -19.1598196640109 | ecoaxstk = 0 | edh = 5.15653064128937 | epot = -148.331706245343 | etot = -104.585927243469
400  ekin = 24.0692560424132 |  erot = 25.4665626906317 | edyn = 49.5358187330449 | ebond = 5.28632187263819 | eexcv = 0.0305974774671331 | estk = -140.457337807725 | ehbond = -3.36239728890112 | exstk = -20.6682879276325 | ecoaxstk = 0 | edh = 5.2748244881919 | epot = -153.896279185961 | etot = -104.360460452916
500  ekin = 23.5036355406429 |  erot = 21.1206864279191 | edyn = 44.624321968562 | ebond = 7.53424314417055 | eexcv = 0.0237920574613036 | estk = -138.598000883841 | ehbond = -4.26053642848646 | exstk = -20.9183105381427 | ecoaxstk = 0 | edh = 5.30833390053551 | epot = -150.910478748303 | etot = -106.28615677974
600  ekin = 27.6986172136243 |  erot = 22.6609214942766 | edyn = 50.3595387079009 | ebond = 7.49429234537867 | eexcv = 0 | estk = -139.165894379501 | ehbond = -5.82714840009957 | exstk = -21.1862370559913 | ecoaxstk = 0 | edh = 5.25983928307078 | epot = -153.425148207142 | etot = -103.065609499241
700  ekin = 21.3605228221418 |  erot = 23.6788783137949 | edyn = 45.0394011359367 | ebond = 7.30448253105911 | eexcv = 0 | estk = -140.283940325587 | ehbond = -6.8950815371946 | exstk = -18.4784802581751 | ecoaxstk = 0 | edh = 5.35368821383575 | epot = -152.999331376061 | etot = -107.959930240125
800  ekin = 20.7056250174736 |  erot = 25.1139871137952 | edyn = 45.8196121312689 | ebond = 7.23121425318537 | eexcv = 0.00747829352899653 | estk = -141.796558655147 | ehbond = -6.5149556724991 | exstk = -18.2224539093652 | ecoaxstk = 0 | edh = 5.41668020889832 | epot = -153.878595481398 | etot = -108.05898335013
900  ekin = 23.966529356816 |  erot = 21.802961422093 | edyn = 45.7694907789089 | ebond = 8.08702059010041 | eexcv = 0.101025780078255 | estk = -136.81558408179 | ehbond = -7.892441210254 | exstk = -18.0821812977757 | ecoaxstk = 0 | edh = 5.33407932553637 | epot = -149.268080894105 | etot = -103.498590115196
1000  ekin = 24.7754444138069 |  erot = 20.6683981403213 | edyn = 45.4438425541282 | ebond = 7.12717437109264 | eexcv = 0.00419035282990016 | estk = -140.476723417419 | ehbond = -7.10666328355118 | exstk = -19.4327174572482 | ecoaxstk = 0 | edh = 5.32991392604922 | epot = -154.554825508247 | etot = -109.110982954119
1100  ekin = 21.6762628892841 |  erot = 21.0113430805247 | edyn = 42.6876059698088 | ebond = 8.05987223245289 | eexcv = 0.0625497383253534 | estk = -138.933655396617 | ehbond = -8.43127124907475 | exstk = -20.3117172583143 | ecoaxstk = 0 | edh = 5.36343051705552 | epot = -154.190791416172 | etot = -111.503185446363
1200  ekin = 22.9249561955595 |  erot = 22.5077828703395 | edyn = 45.4327390658989 | ebond = 8.79116514813153 | eexcv = 0.013124445439199 | estk = -141.365839358315 | ehbond = -10.8627950800507 | exstk = -17.8936328057176 | ecoaxstk = 0 | edh = 5.38655454337066 | epot = -155.931423107142 | etot = -110.498684041243
1300  ekin = 22.3340280170595 |  erot = 23.7159494163246 | edyn = 46.0499774333841 | ebond = 6.95594100931273 | eexcv = 0.038239078497554 | estk = -141.640411436622 | ehbond = -9.39705517648111 | exstk = -20.0207462531996 | ecoaxstk = 0 | edh = 5.37402778628672 | epot = -158.690004992205 | etot = -112.640027558821
1400  ekin = 21.9584891836437 |  erot = 25.599043797573 | edyn = 47.5575329812167 | ebond = 5.72987064508859 | eexcv = 0 | estk = -143.878544016908 | ehbond = -8.16177697487655 | exstk = -19.2069924224127 | ecoaxstk = 0 | edh = 5.51287664456709 | epot = -160.004566124542 | etot = -112.447033143325
1500  ekin = 20.6935830815067 |  erot = 23.4104175887378 | edyn = 44.1040006702446 | ebond = 6.48433084674098 | eexcv = 0.056539683335299 | estk = -143.690261615355 | ehbond = -9.63968092098845 | exstk = -19.2951143460997 | ecoaxstk = 0 | edh = 5.6009319901795 | epot = -160.483254362187 | etot = -116.379253691943
1600  ekin = 22.8337236013622 |  erot = 21.0492882174667 | edyn = 43.8830118188289 | ebond = 6.0175281757453 | eexcv = 0 | estk = -143.754965472326 | ehbond = -9.14791335630131 | exstk = -20.8893284985412 | ecoaxstk = 0 | edh = 5.45001929716835 | epot = -162.324659854255 | etot = -118.441648035426
1700  ekin = 21.1099324190741 |  erot = 23.6388399534253 | edyn = 44.7487723724995 | ebond = 6.80738889142854 | eexcv = 0 | estk = -141.503504579899 | ehbond = -9.75999206124112 | exstk = -21.3017062757584 | ecoaxstk = 0 | edh = 5.54589603891398 | epot = -160.211917986556 | etot = -115.463145614056
1800  ekin = 23.3873780661189 |  erot = 23.3622903852336 | edyn = 46.7496684513525 | ebond = 8.02188707234233 | eexcv = 0.0328573823668547 | estk = -142.028323011855 | ehbond = -9.36287653738018 | exstk = -21.6200472020366 | ecoaxstk = 0 | edh = 5.64968269326445 | epot = -159.306819603298 | etot = -112.557151151946
1900  ekin = 23.2107227822166 |  erot = 22.2155918989447 | edyn = 45.4263146811614 | ebond = 5.60471460188368 | eexcv = 0.0393161767986188 | estk = -144.454015269125 | ehbond = -9.45777920159373 | exstk = -20.2896482274315 | ecoaxstk = 0 | edh = 5.71078287159649 | epot = -162.846629047872 | etot = -117.42031436671
2000  ekin = 23.788057916309 |  erot = 22.4691421774538 | edyn = 46.2572000937628 | ebond = 7.9255040169495 | eexcv = 0.215224294070874 | estk = -144.438684963602 | ehbond = -9.84057753658159 | exstk = -20.594371291474 | ecoaxstk = 0 | edh = 5.87902116296214 | epot = -160.853884317675 | etot = -114.596684223913
2100  ekin = 19.8288906468737 |  erot = 20.5992008097762 | edyn = 40.4280914566498 | ebond = 7.70752008280371 | eexcv = 0 | estk = -146.915884499908 | ehbond = -12.8292515360497 | exstk = -19.5446934199652 | ecoaxstk = 0 | edh = 5.86038703583121 | epot = -165.721922337287 | etot = -125.293830880638
2200  ekin = 19.54194269808 |  erot = 21.726982566369 | edyn = 41.2689252644489 | ebond = 7.41535178147483 | eexcv = 0.107200235519629 | estk = -144.327945441154 | ehbond = -14.0598071520101 | exstk = -19.777461939036 | ecoaxstk = 0 | edh = 5.86445652160219 | epot = -164.778205993603 | etot = -123.509280729154
2300  ekin = 22.0728488444659 |  erot = 22.1879857172044 | edyn = 44.2608345616704 | ebond = 6.27834081033924 | eexcv = 0 | estk = -145.417207607323 | ehbond = -11.5017465247395 | exstk = -20.800453357831 | ecoaxstk = 0 | edh = 5.81208504501698 | epot = -165.628981634537 | etot = -121.368147072867
2400  ekin = 22.9170269676684 |  erot = 21.7097232651194 | edyn = 44.6267502327878 | ebond = 7.09306238267055 | eexcv = 0.121733113090285 | estk = -143.934495388974 | ehbond = -12.6080957839036 | exstk = -20.9546243010118 | ecoaxstk = 0 | edh = 5.80764285732463 | epot = -164.474777120804 | etot = -119.848026888016
2500  ekin = 21.5365947385065 |  erot = 20.970292618796 | edyn = 42.5068873573025 | ebond = 7.31532387424213 | eexcv = 0 | estk = -141.31059945283 | ehbond = -15.0203855660426 | exstk = -21.051216340191 | ecoaxstk = 0 | edh = 5.81771669731639 | epot = -164.249160787505 | etot = -121.742273430203
2600  ekin = 22.661648958455 |  erot = 21.9740238535765 | edyn = 44.6356728120315 | ebond = 6.61530139419746 | eexcv = 0.035840721583921 | estk = -141.422847099652 | ehbond = -13.3729537214574 | exstk = -21.7525777690319 | ecoaxstk = 0 | edh = 5.81865821329135 | epot = -164.078578261068 | etot = -119.442905449037
2700  ekin = 20.6981781598211 |  erot = 22.8165678821017 | edyn = 43.5147460419228 | ebond = 6.87539890470459 | eexcv = 0 | estk = -140.543767916323 | ehbond = -16.5940708083955 | exstk = -21.7544222254227 | ecoaxstk = 0 | edh = 5.76315434627631 | epot = -166.253707699161 | etot = -122.738961657238
2800  ekin = 22.6902054044114 |  erot = 22.4176375432692 | edyn = 45.1078429476806 | ebond = 6.78962231375839 | eexcv = 0.0776755767196545 | estk = -142.762280199625 | ehbond = -20.3933098961219 | exstk = -20.6008072880963 | ecoaxstk = 0 | edh = 5.72458265331664 | epot = -171.164516840049 | etot = -126.056673892368
2900  ekin = 23.1967024512245 |  erot = 23.1631048290092 | edyn = 46.3598072802338 | ebond = 8.42407485774784 | eexcv = 0 | estk = -141.472392918203 | ehbond = -20.5110747394955 | exstk = -19.8127031231635 | ecoaxstk = 0 | edh = 5.73095162604906 | epot = -167.641144297065 | etot = -121.281337016832
3000  ekin = 22.8374145874345 |  erot = 23.8667863043196 | edyn = 46.704200891754 | ebond = 7.69612343920894 | eexcv = 0 | estk = -140.041525537472 | ehbond = -20.6993343173825 | exstk = -20.6823915215429 | ecoaxstk = 0 | edh = 5.72127412055026 | epot = -168.005853816638 | etot = -121.301652924884
3100  ekin = 22.9542859092705 |  erot = 21.2484277376152 | edyn = 44.2027136468856 | ebond = 6.95517030133256 | eexcv = 0.0193754680299003 | estk = -139.346000063002 | ehbond = -23.4123252990894 | exstk = -20.9055003038672 | ecoaxstk = 0 | edh = 5.71011522315636 | epot = -170.97916467344 | etot = -126.776451026554
3200  ekin = 21.696938542213 |  erot = 24.6907109753294 | edyn = 46.3876495175424 | ebond = 6.09628178282704 | eexcv = 0 | estk = -141.050460443908 | ehbond = -22.9911230518533 | exstk = -21.5901265370532 | ecoaxstk = 0 | edh = 5.67786608481682 | epot = -173.85756216517 | etot = -127.469912647628
3300  ekin = 24.1869856943634 |  erot = 22.9915626359099 | edyn = 47.1785483302733 | ebond = 7.13004093480154 | eexcv = 0 | estk = -139.708177931565 | ehbond = -22.6241896099305 | exstk = -21.9575183435173 | ecoaxstk = 0 | edh = 5.61449641167844 | epot = -171.545348538533 | etot = -124.36680020826
3400  ekin = 24.5265384536863 |  erot = 21.1428345562111 | edyn = 45.6693730098974 | ebond = 6.78352921929793 | eexcv = 0 | estk = -138.526828519427 | ehbond = -25.8104194410725 | exstk = -19.4600092146984 | ecoaxstk = 0 | edh = 5.60707278886486 | epot = -171.406655167035 | etot = -125.737282157138
3500  ekin = 23.8421447160386 |  erot = 24.7251826188822 | edyn = 48.5673273349208 | ebond = 8.19283026693831 | eexcv = 0.0330897157452972 | estk = -138.939467483695 | ehbond = -23.0545664120389 | exstk = -21.3460476464057 | ecoaxstk = 0 | edh = 5.66966362254438 | epot = -169.444497936911 | etot = -120.877170601991
3600  ekin = 20.7758652803331 |  erot = 21.8184132028804 | edyn = 42.5942784832135 | ebond = 7.99353822380875 | eexcv = 0 | estk = -138.85423799538 | ehbond = -23.9129425087925 | exstk = -22.6575823056014 | ecoaxstk = 0 | edh = 5.6347258273443 | epot = -171.796498758621 | etot = -129.202220275407
3700  ekin = 19.1197048378423 |  erot = 21.8660391352849 | edyn = 40.9857439731272 | ebond = 6.76180589263179 | eexcv = 0 | estk = -139.237545732871 | ehbond = -23.8184144337024 | exstk = -22.0672421532808 | ecoaxstk = 0 | edh = 5.66653400910564 | epot = -172.694862418117 | etot = -131.70911844499
3800  ekin = 21.7913302957362 |  erot = 22.3312978661791 | edyn = 44.1226281619153 | ebond = 6.98654922671956 | eexcv = 0 | estk = -141.384398071205 | ehbond = -25.3738260414053 | exstk = -22.0664189476592 | ecoaxstk = 0 | edh = 5.61396135152702 | epot = -176.224132482023 | etot = -132.101504320108
3900  ekin = 23.1714324412991 |  erot = 25.6406481696329 | edyn = 48.812080610932 | ebond = 5.20258142836086 | eexcv = 0.00362358791217637 | estk = -138.998786009981 | ehbond = -24.6098979588621 | exstk = -21.7907135429621 | ecoaxstk = 0 | edh = 5.598708400805 | epot = -174.594484094727 | etot = -125.782403483795
4000  ekin = 22.4284080970446 |  erot = 23.2062386215162 | edyn = 45.6346467185608 | ebond = 7.09774077883262 | eexcv = 0 | estk = -141.83722284264 | ehbond = -23.5443291381754 | exstk = -20.6595723689759 | ecoaxstk = 0 | edh = 5.53982016754242 | epot = -173.403563403416 | etot = -127.768916684856
4100  ekin = 20.2369737956794 |  erot = 24.1516778424951 | edyn = 44.3886516381744 | ebond = 8.28986670669808 | eexcv = 0.0384003040695007 | estk = -142.275626871632 | ehbond = -22.5426637952486 | exstk = -20.8991439177798 | ecoaxstk = 0 | edh = 5.51257651917271 | epot = -171.87659105472 | etot = -127.487939416546
4200  ekin = 21.5563127760712 |  erot = 20.9165523450294 | edyn = 42.4728651211006 | ebond = 6.84129409596124 | eexcv = 0 | estk = -142.084560258675 | ehbond = -23.9507248122285 | exstk = -21.6100361435795 | ecoaxstk = 0 | edh = 5.45432145401847 | epot = -175.349705664504 | etot = -132.876840543403
4300  ekin = 20.6343094917354 |  erot = 24.6310070565046 | edyn = 45.26531654824 | ebond = 6.6570674043471 | eexcv = 0 | estk = -141.655557158433 | ehbond = -25.1723949595475 | exstk = -22.312638253447 | ecoaxstk = 0 | edh = 5.4622215435292 | epot = -177.021301423551 | etot = -131.755984875311
4400  ekin = 22.1464052108782 |  erot = 22.4993028529602 | edyn = 44.6457080638384 | ebond = 7.15327925422523 | eexcv = 0 | estk = -143.664685119472 | ehbond = -23.9951789058106 | exstk = -21.9665580251752 | ecoaxstk = 0 | edh = 5.52440024561294 | epot = -176.94874255062 | etot = -132.303034486781
4500  ekin = 24.7748373415212 |  erot = 19.9413261719096 | edyn = 44.7161635134308 | ebond = 6.46704604718093 | eexcv = 0 | estk = -143.848151313619 | ehbond = -25.3310587400261 | exstk = -22.8907775133268 | ecoaxstk = 0 | edh = 5.43847543364494 | epot = -180.164466086146 | etot = -135.448302572715
4600  ekin = 20.5124398488758 |  erot = 20.5259980533049 | edyn = 41.0384379021807 | ebond = 7.59872725608722 | eexcv = 0 | estk = -143.291283522465 | ehbond = -25.1594887793107 | exstk = -23.2652379136305 | ecoaxstk = 0 | edh = 5.49725144974274 | epot = -178.620031509576 | etot = -137.581593607395
4700  ekin = 22.0879761605745 |  erot = 24.8311182283578 | edyn = 46.9190943889323 | ebond = 6.7300869922204 | eexcv = 0.0532113618988554 | estk = -140.914207755863 | ehbond = -24.7143739049319 | exstk = -23.2929323640086 | ecoaxstk = 0 | edh = 5.53873428817563 | epot = -176.599481382509 | etot = -129.680386993577
4800  ekin = 21.0203528669376 |  erot = 23.4688938867656 | edyn = 44.4892467537032 | ebond = 7.09994830728152 | eexcv = 0.0741101546681668 | estk = -142.965440565525 | ehbond = -24.4636342551093 | exstk = -22.4154801555382 | ecoaxstk = 0 | edh = 5.50056720633285 | epot = -177.16992930789 | etot = -132.680682554187
4900  ekin = 22.269265187844 |  erot = 20.6919474095178 | edyn = 42.9612125973618 | ebond = 7.75414659483398 | eexcv = 0 | estk = -140.560035410585 | ehbond = -23.8437893322795 | exstk = -22.007396437201 | ecoaxstk = 0 | edh = 5.45120370356594 | epot = -173.205870881666 | etot = -130.244658284304
5000  ekin = 24.5399661392939 |  erot = 21.8269720419356 | edyn = 46.3669381812295 | ebond = 5.02484727500288 | eexcv = 0 | estk = -143.102707265111 | ehbond = -25.2410238694328 | exstk = -22.0183173377268 | ecoaxstk = 0 | edh = 5.59552669082719 | epot = -179.741674506441 | etot = -133.374736325211
5100  ekin = 22.7977272595248 |  erot = 25.2112640466001 | edyn = 48.0089913061249 | ebond = 7.45063480595562 | eexcv = 0.110570755724577 | estk = -144.537273373834 | ehbond = -25.3198345825261 | exstk = -23.1526105935617 | ecoaxstk = 0 | edh = 5.67049536968289 | epot = -179.778017618558 | etot = -131.769026312433
5200  ekin = 19.2703850288135 |  erot = 22.5501626142136 | edyn = 41.8205476430271 | ebond = 6.86533685006766 | eexcv = 0 | estk = -143.750810159444 | ehbond = -22.8715187655619 | exstk = -23.2170671928014 | ecoaxstk = 0 | edh = 5.74518231889207 | epot = -177.228876948848 | etot = -135.408329305821
5300  ekin = 20.616188443871 |  erot = 21.1200832373845 | edyn = 41.7362716812555 | ebond = 7.69412375399178 | eexcv = 0 | estk = -138.903093093975 | ehbond = -24.6712202617062 | exstk = -24.377656642727 | ecoaxstk = 0 | edh = 5.70247191120825 | epot = -174.555374333208 | etot = -132.819102651952
5400  ekin = 18.9264883792557 |  erot = 24.2772876641665 | edyn = 43.2037760434223 | ebond = 7.58708226536648 | eexcv = 0 | estk = -142.179278484718 | ehbond = -24.8967474768385 | exstk = -23.4761940357803 | ecoaxstk = 0 | edh = 5.65877089280992 | epot = -177.306366839161 | etot = -134.102590795738
5500  ekin = 21.8650394766919 |  erot = 24.3392866005396 | edyn = 46.2043260772315 | ebond = 8.01221900089111 | eexcv = 0 | estk = -142.971562164256 | ehbond = -22.4908242729367 | exstk = -24.2075605125545 | ecoaxstk = 0 | edh = 5.65565723756595 | epot = -176.002070711291 | etot = -129.797744634059
5600  ekin = 21.3222063993976 |  erot = 21.3961628064751 | edyn = 42.7183692058726 | ebond = 7.94868075964912 | eexcv = 0 | estk = -142.582397097821 | ehbond = -23.1960449291836 | exstk = -21.7093502493033 | ecoaxstk = 0 | edh = 5.86069068697551 | epot = -173.678420829683 | etot = -130.96005162381
5700  ekin = 22.4197381217944 |  erot = 22.7020485350009 | edyn = 45.1217866567953 | ebond = 6.21512977140876 | eexcv = 0 | estk = -144.248448749332 | ehbond = -24.254392205984 | exstk = -23.4230711545591 | ecoaxstk = 0 | edh = 5.75380250311633 | epot = -179.95697983535 | etot = -134.835193178554
5800  ekin = 21.8057259826736 |  erot = 19.8935131775364 | edyn = 41.6992391602101 | ebond = 5.72061674119497 | eexcv = 0 | estk = -140.487415415465 | ehbond = -24.4962072490201 | exstk = -22.708735031653 | ecoaxstk = 0 | edh = 5.77875217254827 | epot = -176.192988782395 | etot = -134.493749622185
5900  ekin = 21.5272628816293 |  erot = 22.4994257853833 | edyn = 44.0266886670126 | ebond = 7.50070692513232 | eexcv = 0 | estk = -141.937699994635 | ehbond = -25.0885378305908 | exstk = -22.4784920430209 | ecoaxstk = 0 | edh = 5.75735073012027 | epot = -176.246672212994 | etot = -132.219983545982
6000  ekin = 21.4817982146609 |  erot = 23.2803873219043 | edyn = 44.7621855365653 | ebond = 7.93554011808179 | eexcv = 0 | estk = -142.050175803205 | ehbond = -23.7572439217833 | exstk = -22.4673360735934 | ecoaxstk = 0 | edh = 5.68884601185129 | epot = -174.650369668648 | etot = -129.888184132083
6100  ekin = 18.5665607926598 |  erot = 21.6424394586687 | edyn = 40.2090002513285 | ebond = 5.80053936846699 | eexcv = 0 | estk = -144.425793841096 | ehbond = -21.6889252185205 | exstk = -21.4231069761656 | ecoaxstk = 0 | edh = 5.73476243125976 | epot = -176.002524236055 | etot = -135.793523984727
6200  ekin = 21.6456563369428 |  erot = 22.6271679332265 | edyn = 44.2728242701693 | ebond = 6.62390797492605 | eexcv = 0 | estk = -146.023287525306 | ehbond = -22.2975602468388 | exstk = -21.7444777669511 | ecoaxstk = 0 | edh = 5.64715053022763 | epot = -177.794267033942 | etot = -133.521442763773
6300  ekin = 20.2729539527767 |  erot = 20.8318401943794 | edyn = 41.1047941471562 | ebond = 5.36225374171163 | eexcv = 0.176112991209378 | estk = -141.902785633089 | ehbond = -23.0580164536231 | exstk = -20.5136147693191 | ecoaxstk = 0 | edh = 5.73000603798457 | epot = -174.206044085126 | etot = -133.101249937969
6400  ekin = 22.6136732480184 |  erot = 17.8318332228394 | edyn = 40.4455064708578 | ebond = 6.12545252559708 | eexcv = 0.00431291957216677 | estk = -139.199303635834 | ehbond = -23.1029342429682 | exstk = -21.8589256333324 | ecoaxstk = 0 | edh = 5.6932457256366 | epot = -172.338152341329 | etot = -131.892645870471
6500  ekin = 22.4072180550516 |  erot = 23.2132543327016 | edyn = 45.6204723877532 | ebond = 6.24875475165727 | eexcv = 0.0500971827401205 | estk = -139.768485636936 | ehbond = -22.6011865267933 | exstk = -19.6497892373211 | ecoaxstk = 0 | edh = 5.68676643043374 | epot = -170.033843036219 | etot = -124.413370648466
6600  ekin = 23.2256409095084 |  erot = 21.5161557924189 | edyn = 44.7417967019273 | ebond = 7.44947436914399 | eexcv = 7.02703663429592e-05 | estk = -143.153380252426 | ehbond = -24.0077165199997 | exstk = -20.5163796375984 | ecoaxstk = 0 | edh = 5.66529662043875 | epot = -174.562635150075 | etot = -129.820838448147
6700  ekin = 22.8682079174369 |  erot = 22.1940213640058 | edyn = 45.0622292814427 | ebond = 8.22880761295268 | eexcv = 0.0729582638270957 | estk = -140.825321908381 | ehbond = -22.1707724840182 | exstk = -20.9503765973016 | ecoaxstk = 0 | edh = 5.57696783316825 | epot = -170.067737279753 | etot = -125.00550799831
6800  ekin = 22.28312098564 |  erot = 21.9021932383307 | edyn = 44.1853142239707 | ebond = 7.87751493989284 | eexcv = 0 | estk = -141.982292113441 | ehbond = -23.038317830151 | exstk = -18.8779835819093 | ecoaxstk = 0 | edh = 5.66685865887167 | epot = -170.354219926736 | etot = -126.168905702766
6900  ekin = 24.2921684599273 |  erot = 22.5086033609979 | edyn = 46.8007718209252 | ebond = 6.7320209787807 | eexcv = 0.0276326706029916 | estk = -139.603740963763 | ehbond = -21.0060342461192 | exstk = -22.4366982928723 | ecoaxstk = 0 | edh = 5.62410510963331 | epot = -170.662714743737 | etot = -123.861942922812
7000  ekin = 19.0507233640569 |  erot = 23.3709178031477 | edyn = 42.4216411672047 | ebond = 6.82656587348446 | eexcv = 0 | estk = -139.250089788734 | ehbond = -23.889944950787 | exstk = -20.2993593776054 | ecoaxstk = 0 | edh = 5.6538493215896 | epot = -170.958978922052 | etot = -128.537337754848
7100  ekin = 22.2230291361467 |  erot = 20.3700983261572 | edyn = 42.5931274623039 | ebond = 6.29211068200313 | eexcv = 0 | estk = -141.589053625972 | ehbond = -21.7716031771299 | exstk = -22.3858295249672 | ecoaxstk = -7.02694493869575e-07 | edh = 5.43890879243931 | epot = -174.015467556321 | etot = -131.422340094017
7200  ekin = 21.6626344907281 |  erot = 23.5488044041651 | edyn = 45.2114388948933 | ebond = 6.37243010229464 | eexcv = 0 | estk = -138.85269996222 | ehbond = -22.6407667480186 | exstk = -23.5644722012018 | ecoaxstk = 0 | edh = 5.48475451367069 | epot = -173.200754295475 | etot = -127.989315400582
7300  ekin = 24.3862573671584 |  erot = 25.5583447738607 | edyn = 49.9446021410191 | ebond = 5.35981309497497 | eexcv = 0 | estk = -140.800075409277 | ehbond = -22.7663656525532 | exstk = -22.4089302497442 | ecoaxstk = 0 | edh = 5.51137619671273 | epot = -175.104182019887 | etot = -125.159579878867
7400  ekin = 23.5811950832456 |  erot = 21.3364419881158 | edyn = 44.9176370713614 | ebond = 6.15910876880057 | eexcv = 0 | estk = -139.593111200559 | ehbond = -22.9018797580978 | exstk = -21.4460808135776 | ecoaxstk = 0 | edh = 5.51137732172936 | epot = -172.270585681704 | etot = -127.352948610343
7500  ekin = 22.0735866549971 |  erot = 21.8150053797119 | edyn = 43.888592034709 | ebond = 6.97166242418301 | eexcv = 0.0142001766658021 | estk = -143.16576117209 | ehbond = -23.9675991992093 | exstk = -20.7414274294176 | ecoaxstk = 0 | edh = 5.66716310751971 | epot = -175.221762092348 | etot = -131.333170057639
7600  ekin = 21.2887635885812 |  erot = 23.957365429416 | edyn = 45.2461290179973 | ebond = 6.57217681182656 | eexcv = 0.0127446311714862 | estk = -143.579192913293 | ehbond = -20.6022065936133 | exstk = -22.0794764170869 | ecoaxstk = 0 | edh = 5.66313058190687 | epot = -174.012823899088 | etot = -128.766694881091
7700  ekin = 25.6625457226039 |  erot = 23.1868058888146 | edyn = 48.8493516114185 | ebond = 8.28846416457041 | eexcv = 0 | estk = -143.954363547091 | ehbond = -22.9114078349884 | exstk = -20.1419458970515 | ecoaxstk = 0 | edh = 5.81617311910974 | epot = -172.90307999545 | etot = -124.053728384032
7800  ekin = 21.8871407207724 |  erot = 22.6792906761464 | edyn = 44.5664313969187 | ebond = 7.61382067772151 | eexcv = 0.000112541618558964 | estk = -147.334081900457 | ehbond = -21.6136795524023 | exstk = -21.0601779594168 | ecoaxstk = 0 | edh = 5.84010187497854 | epot = -176.553904317958 | etot = -131.987472921039
7900  ekin = 21.781919662234 |  erot = 23.1329701812216 | edyn = 44.9148898434557 | ebond = 7.47018750853826 | eexcv = 0 | estk = -143.042332585114 | ehbond = -22.0364861608311 | exstk = -20.2115963189186 | ecoaxstk = 0 | edh = 5.84480447641361 | epot = -171.975423079912 | etot = -127.060533236456
8000  ekin = 21.3281094496734 |  erot = 21.7198034877753 | edyn = 43.0479129374487 | ebond = 8.41025667745159 | eexcv = 0.061463290161951 | estk = -140.019732967662 | ehbond = -25.2911416988658 | exstk = -20.8632775386809 | ecoaxstk = 0 | edh = 5.76310176963676 | epot = -171.939330467959 | etot = -128.89141753051
8100  ekin = 23.2611484398872 |  erot = 22.9714208081631 | edyn = 46.2325692480503 | ebond = 6.98789881731866 | eexcv = 0 | estk = -139.851925345818 | ehbond = -23.5531880733339 | exstk = -23.6365300931862 | ecoaxstk = -2.25158752164996e-06 | edh = 5.63260849638585 | epot = -174.421138450221 | etot = -128.18856920217
8200  ekin = 23.5377418690095 |  erot = 18.788578930089 | edyn = 42.3263207990985 | ebond = 6.36328974814539 | eexcv = 0 | estk = -142.045530835338 | ehbond = -27.1252424939868 | exstk = -21.1077342257689 | ecoaxstk = -6.84837034260091e-06 | edh = 5.67028796883971 | epot = -178.244936686478 | etot = -135.91861588738
8300  ekin = 21.036365536396 |  erot = 23.7878129380625 | edyn = 44.8241784744584 | ebond = 5.58754870861358 | eexcv = 0 | estk = -140.371418764017 | ehbond = -25.3733761574399 | exstk = -20.6977944456331 | ecoaxstk = 0 | edh = 5.68889827335661 | epot = -175.16614238512 | etot = -130.341963910662
8400  ekin = 24.5304942339228 |  erot = 23.0518932875593 | edyn = 47.5823875214821 | ebond = 6.5573737580271 | eexcv = 0 | estk = -143.359616676878 | ehbond = -24.8755918683209 | exstk = -21.1383748540292 | ecoaxstk = 0 | edh = 5.5914874835529 | epot = -177.224722157648 | etot = -129.642334636166
8500  ekin = 20.346917479897 |  erot = 19.1626239186105 | edyn = 39.5095413985075 | ebond = 6.24109735255293 | eexcv = 0 | estk = -140.412422202503 | ehbond = -24.8562384658856 | exstk = -21.9419045036209 | ecoaxstk = 0 | edh = 5.65078925358039 | epot = -175.318678565876 | etot = -135.809137167369
8600  ekin = 22.8647088476454 |  erot = 22.2917593715263 | edyn = 45.1564682191716 | ebond = 6.32731271021869 | eexcv = 0 | estk = -144.294413070723 | ehbond = -23.5141782124852 | exstk = -21.221376699361 | ecoaxstk = 0 | edh = 5.57796646223392 | epot = -177.124688810116 | etot = -131.968220590945
8700  ekin = 23.9566011905762 |  erot = 21.8950567247099 | edyn = 45.8516579152862 | ebond = 6.68810687148177 | eexcv = 0.0266451407005479 | estk = -141.799433017916 | ehbond = -24.7776877239123 | exstk = -21.2876117318105 | ecoaxstk = 0 | edh = 5.774701451127 | epot = -175.37527901033 | etot = -129.523621095044
8800  ekin = 21.4199710676874 |  erot = 24.4277558849698 | edyn = 45.8477269526572 | ebond = 7.12012175251767 | eexcv = 0 | estk = -139.769465534165 | ehbond = -25.5779566419825 | exstk = -21.5805333122125 | ecoaxstk = 0 | edh = 5.85235316154673 | epot = -173.955480574296 | etot = -128.107753621639
8900  ekin = 22.8098408538547 |  erot = 23.4957965579923 | edyn = 46.305637411847 | ebond = 6.68303537406729 | eexcv = 0 | estk = -140.209882468333 | ehbond = -24.8736960226228 | exstk = -21.3886269580459 | ecoaxstk = -0.304793081355596 | edh = 5.82318778106823 | epot = -174.270775375222 | etot = -127.965137963375
9000  ekin = 25.484765955093 |  erot = 19.2052636581299 | edyn = 44.690029613223 | ebond = 7.68925196989231 | eexcv = 0.00459169932753194 | estk = -142.612930970539 | ehbond = -24.6276769448553 | exstk = -22.2158572100757 | ecoaxstk = -0.283399450486029 | edh = 5.82925403170476 | epot = -176.216766875032 | etot = -131.526737261809
9100  ekin = 23.0309226789146 |  erot = 21.6273542993716 | edyn = 44.6582769782862 | ebond = 6.43543679931638 | eexcv = 0.00487000545036415 | estk = -139.628235987148 | ehbond = -24.4144423267007 | exstk = -22.1555398469205 | ecoaxstk = -0.964470541896194 | edh = 5.78494093685981 | epot = -174.937440961039 | etot = -130.279163982753
9200  ekin = 24.3044010379883 |  erot = 22.1091097166808 | edyn = 46.4135107546691 | ebond = 6.73187761503858 | eexcv = 0 | estk = -143.093178012625 | ehbond = -24.9254716311139 | exstk = -21.2774252915657 | ecoaxstk = -0.968363519048846 | edh = 5.77838178480699 | epot = -177.754179054508 | etot = -131.340668299839
9300  ekin = 22.0843335697425 |  erot = 22.9571558542786 | edyn = 45.0414894240211 | ebond = 6.95256104838043 | eexcv = 0 | estk = -141.965198981444 | ehbond = -23.2825497591422 | exstk = -21.2786468500845 | ecoaxstk = -0.897748700999608 | edh = 5.8256200914288 | epot = -174.645963151861 | etot = -129.60447372784
9400  ekin = 23.4805903015556 |  erot = 24.2638362067273 | edyn = 47.744426508283 | ebond = 7.36617214246967 | eexcv = 0 | estk = -142.877055400361 | ehbond = -23.9600856334797 | exstk = -22.791639091848 | ecoaxstk = -1.00305878226255 | edh = 5.83771325581081 | epot = -177.427953509671 | etot = -129.683527001388
9500  ekin = 22.2041634919172 |  erot = 23.3429072470255 | edyn = 45.5470707389427 | ebond = 8.90951680274441 | eexcv = 0 | estk = -143.345013867015 | ehbond = -23.6886469260616 | exstk = -21.6795384222968 | ecoaxstk = -0.708081842272355 | edh = 5.86766094351842 | epot = -174.644103311382 | etot = -129.09703257244
9600  ekin = 22.2463507134362 |  erot = 22.2323439065119 | edyn = 44.4786946199482 | ebond = 6.83732093327281 | eexcv = 0.0109093547993201 | estk = -144.352429438791 | ehbond = -23.2692089314014 | exstk = -22.9992041559066 | ecoaxstk = -0.647676967343755 | edh = 5.76680730287268 | epot = -178.653481902498 | etot = -134.17478728255
9700  ekin = 21.5168504598774 |  erot = 24.6658575868194 | edyn = 46.1827080466968 | ebond = 6.70879753262738 | eexcv = 0 | estk = -143.352685199093 | ehbond = -24.7835486180676 | exstk = -20.6842841372204 | ecoaxstk = -0.619508233030931 | edh = 5.70995731463804 | epot = -177.021271340147 | etot = -130.83856329345
9800  ekin = 22.9684229405153 |  erot = 23.5485500358391 | edyn = 46.5169729763543 | ebond = 7.06449964479437 | eexcv = 0.0235264349873816 | estk = -145.326934193697 | ehbond = -24.7785215967505 | exstk = -22.4225878390396 | ecoaxstk = -0.813174876349159 | edh = 5.67948809709524 | epot = -180.573704328959 | etot = -134.056731352605
9900  ekin = 25.9434052932882 |  erot = 21.3556302922498 | edyn = 47.299035585538 | ebond = 6.28665414148537 | eexcv = 0.0410667964422799 | estk = -145.819359767404 | ehbond = -26.4929184889272 | exstk = -22.6317046263952 | ecoaxstk = -0.691039585750258 | edh = 5.73603431790411 | epot = -183.571267212644 | etot = -136.272231627106
10000  ekin = 20.5434509975164 |  erot = 20.8894477819992 | edyn = 41.4328987795155 | ebond = 6.51048388181454 | eexcv = 0 | estk = -140.349649569986 | ehbond = -25.7827679626154 | exstk = -22.6839713492862 | ecoaxstk = -0.591147544867696 | edh = 5.53795481148526 | epot = -177.359097733456 | etot = -135.92619895394
10100  ekin = 22.1442430469279 |  erot = 22.7310177549256 | edyn = 44.8752608018536 | ebond = 6.82563912279676 | eexcv = 0.0373493839594703 | estk = -141.117865035341 | ehbond = -24.7730534306297 | exstk = -22.6918924011982 | ecoaxstk = -0.5995118586156 | edh = 5.58964486659096 | epot = -176.729689352437 | etot = -131.854428550583
10200  ekin = 22.3662741015216 |  erot = 21.2269268014529 | edyn = 43.5932009029745 | ebond = 6.39951711431926 | eexcv = 0 | estk = -143.311745553843 | ehbond = -26.5637864124253 | exstk = -21.9278385338859 | ecoaxstk = -0.576752834838862 | edh = 5.67258264832543 | epot = -180.308023572348 | etot = -136.714822669374
10300  ekin = 21.2511696964657 |  erot = 22.2163711419072 | edyn = 43.4675408383728 | ebond = 6.96149204808642 | eexcv = 0.00316160472559199 | estk = -141.890729283896 | ehbond = -28.1800141472229 | exstk = -21.5696394782554 | ecoaxstk = -0.928753368840442 | edh = 5.64131940432672 | epot = -179.963163221076 | etot = -136.495622382703
10400  ekin = 22.8272973056865 |  erot = 23.924341452141 | edyn = 46.7516387578274 | ebond = 7.87678665318082 | eexcv = 0.000418759026197261 | estk = -141.722958076936 | ehbond = -26.723102447188 | exstk = -23.2000346148766 | ecoaxstk = -0.847537343139693 | edh = 5.68760445720602 | epot = -178.928822612727 | etot = -132.1771838549
10500  ekin = 21.7648596990453 |  erot = 23.5385523323086 | edyn = 45.303412031354 | ebond = 9.36031246540355 | eexcv = 0.0656373118256875 | estk = -143.082096720232 | ehbond = -27.6985139179652 | exstk = -20.6444419633057 | ecoaxstk = -0.779709071515332 | edh = 5.72092935044218 | epot = -177.057882545346 | etot = -131.754470513992
10600  ekin = 19.4863490271405 |  erot = 21.8378308456705 | edyn = 41.324179872811 | ebond = 7.51887502223485 | eexcv = 0.00349792274305321 | estk = -143.709891079025 | ehbond = -27.0948149996167 | exstk = -20.9030699774584 | ecoaxstk = -0.510196645915722 | edh = 5.85176334702278 | epot = -178.843836410015 | etot = -137.519656537204
10700  ekin = 21.4264788631513 |  erot = 20.3456808322853 | edyn = 41.7721596954365 | ebond = 6.08482467149556 | eexcv = 0.00731082223808736 | estk = -144.133479796565 | ehbond = -27.1232678033332 | exstk = -19.8968348686668 | ecoaxstk = -0.343879703543841 | edh = 5.91036124257861 | epot = -179.494965435796 | etot = -137.72280574036
10800  ekin = 23.5067010413325 |  erot = 20.6310863867059 | edyn = 44.1377874280384 | ebond = 7.52891168944057 | eexcv = 0.0804643214299532 | estk = -148.431975998924 | ehbond = -26.0670082251629 | exstk = -20.5825429328197 | ecoaxstk = -0.918050249400885 | edh = 5.75529138005512 | epot = -182.634910015382 | etot = -138.497122587344
10900  ekin = 19.4493270646618 |  erot = 22.3415718828629 | edyn = 41.7908989475247 | ebond = 7.5079929502084 | eexcv = 0 | estk = -145.56828556525 | ehbond = -24.3767777512348 | exstk = -20.0989828317109 | ecoaxstk = -0.453495121650067 | edh = 5.77656956962353 | epot = -177.212978750013 | etot = -135.422079802489
11000  ekin = 19.9830175058677 |  erot = 21.2227778808336 | edyn = 41.2057953867013 | ebond = 7.06295732213462 | eexcv = 0.152058953100949 | estk = -142.141817301678 | ehbond = -23.1100583732415 | exstk = -20.0743864911665 | ecoaxstk = -1.14758213855164 | edh = 5.74278275426585 | epot = -173.516045275136 | etot = -132.310249888435
11100  ekin = 21.8822083348532 |  erot = 22.8990360133121 | edyn = 44.7812443481653 | ebond = 6.97564257232407 | eexcv = 0.196883071178967 | estk = -144.417754304377 | ehbond = -27.4998398735446 | exstk = -19.2534365376342 | ecoaxstk = -1.02737768412993 | edh = 5.75113195608457 | epot = -179.274750800098 | etot = -134.493506451933
11200  ekin = 19.0435391777691 |  erot = 21.8681291332813 | edyn = 40.9116683110504 | ebond = 6.92027979366214 | eexcv = 0.186087444022184 | estk = -142.754168331134 | ehbond = -29.8143037545007 | exstk = -19.7438436722512 | ecoaxstk = -0.721243786035518 | edh = 5.74499484665189 | epot = -180.182197459585 | etot = -139.270529148535
11300  ekin = 22.2764624895908 |  erot = 21.8737232242634 | edyn = 44.1501857138542 | ebond = 6.10785930394801 | eexcv = 0 | estk = -143.340719145899 | ehbond = -30.0833601170301 | exstk = -21.9685009566713 | ecoaxstk = -0.615981109253256 | edh = 5.61675007557717 | epot = -184.283951949329 | etot = -140.133766235475
11400  ekin = 22.5993591291286 |  erot = 21.7732857615576 | edyn = 44.3726448906862 | ebond = 6.44302046487033 | eexcv = 0 | estk = -143.284838643686 | ehbond = -30.7755311838173 | exstk = -23.0214109037302 | ecoaxstk = -0.701772337913104 | edh = 5.52831666771986 | epot = -185.812215936557 | etot = -141.43957104587
11500  ekin = 24.3681996588339 |  erot = 22.9455378185825 | edyn = 47.3137374774164 | ebond = 6.30057881378795 | eexcv = 0.173313859778634 | estk = -143.12039135281 | ehbond = -32.5302645993112 | exstk = -20.3928307338961 | ecoaxstk = -0.356491999339024 | edh = 5.65838391426452 | epot = -184.267702097525 | etot = -136.953964620108
11600  ekin = 18.7751031579032 |  erot = 23.4351505862726 | edyn = 42.2102537441758 | ebond = 6.87856411614134 | eexcv = 0.0368585064345689 | estk = -140.434822615153 | ehbond = -29.3788453740909 | exstk = -22.7669818830721 | ecoaxstk = -0.148408462232435 | edh = 5.58979204314593 | epot = -180.223843668827 | etot = -138.013589924651
11700  ekin = 20.6177315424931 |  erot = 18.8150881312407 | edyn = 39.4328196737339 | ebond = 7.71967553413373 | eexcv = 0.0383030044717465 | estk = -141.042610406517 | ehbond = -32.3371772287076 | exstk = -21.6482595299479 | ecoaxstk = -0.43033592405964 | edh = 5.45779702266452 | epot = -182.242607527962 | etot = -142.809787854229
11800  ekin = 20.9750193746545 |  erot = 22.1073721945862 | edyn = 43.0823915692407 | ebond = 6.1915591792982 | eexcv = 0 | estk = -141.057689771383 | ehbond = -30.0398373515484 | exstk = -21.2926695010323 | ecoaxstk = -0.0238010660542329 | edh = 5.53887928504501 | epot = -180.683559225675 | etot = -137.601167656434
11900  ekin = 21.2906612179727 |  erot = 22.8072265114375 | edyn = 44.0978877294102 | ebond = 6.54161484275101 | eexcv = 0 | estk = -141.717085941819 | ehbond = -31.1611883489301 | exstk = -20.8604966894536 | ecoaxstk = -0.219318613525031 | edh = 5.4680941304066 | epot = -181.94838062057 | etot = -137.850492891159
12000  ekin = 23.2339388727085 |  erot = 23.081527379353 | edyn = 46.3154662520615 | ebond = 6.56485315465074 | eexcv = 0 | estk = -141.432988142234 | ehbond = -30.6649808658346 | exstk = -21.4422453944706 | ecoaxstk = -0.17802358704457 | edh = 5.55661039877649 | epot = -181.596774436156 | etot = -135.281308184095
12100  ekin = 22.9890624051801 |  erot = 23.468987431796 | edyn = 46.4580498369761 | ebond = 7.6156438795698 | eexcv = 0 | estk = -144.663282670609 | ehbond = -30.6906857752915 | exstk = -21.5272830226033 | ecoaxstk = -0.438176084373181 | edh = 5.64172694731272 | epot = -184.062056725994 | etot = -137.604006889018
12200  ekin = 21.5317025081048 |  erot = 26.3113939429571 | edyn = 47.8430964510619 | ebond = 6.99199844836332 | eexcv = 0 | estk = -141.172557404101 | ehbond = -32.1548057832835 | exstk = -21.618259221921 | ecoaxstk = -0.497059315940403 | edh = 5.6961692165948 | epot = -182.754514060288 | etot = -134.911417609226
12300  ekin = 21.4890901708762 |  erot = 23.7437770738542 | edyn = 45.2328672447304 | ebond = 7.04620327330327 | eexcv = 0 | estk = -144.844107293677 | ehbond = -31.5888092236413 | exstk = -20.5993820784271 | ecoaxstk = -0.00569950475093076 | edh = 5.76007670234488 | epot = -184.231718124849 | etot = -138.998850880118
12400  ekin = 20.7294036872567 |  erot = 21.6026623352375 | edyn = 42.3320660224942 | ebond = 7.05453775545606 | eexcv = 0 | estk = -141.82637930114 | ehbond = -28.4001593972208 | exstk = -22.0968418630388 | ecoaxstk = -0.032719321548643 | edh = 5.637763689028 | epot = -179.663798438464 | etot = -137.33173241597
12500  ekin = 22.4923503149321 |  erot = 22.6676349526201 | edyn = 45.1599852675522 | ebond = 5.89707935418813 | eexcv = 0.37003944972627 | estk = -143.787718179397 | ehbond = -32.0563443576071 | exstk = -22.2334725395536 | ecoaxstk = -0.0416482292853521 | edh = 5.5983708584841 | epot = -186.253693643444 | etot = -141.093708375892
12600  ekin = 20.9004062449266 |  erot = 20.7384806738438 | edyn = 41.6388869187703 | ebond = 7.62049455704409 | eexcv = 0 | estk = -144.899453410752 | ehbond = -31.4814283443923 | exstk = -21.6577125256434 | ecoaxstk = 0 | edh = 5.57999416123599 | epot = -184.838105562508 | etot = -143.199218643738
12700  ekin = 19.7329113363739 |  erot = 21.4089211578617 | edyn = 41.1418324942356 | ebond = 5.4597860696495 | eexcv = 0 | estk = -145.669116163231 | ehbond = -29.5128471439682 | exstk = -20.3440561808297 | ecoaxstk = 0 | edh = 5.59552565108566 | epot = -184.470707767294 | etot = -143.328875273058
12800  ekin = 21.0777968179141 |  erot = 22.4076773576256 | edyn = 43.4854741755397 | ebond = 6.64760715909916 | eexcv = 0 | estk = -142.65920983222 | ehbond = -29.7717044610907 | exstk = -20.592187701419 | ecoaxstk = 0 | edh = 5.59290416918916 | epot = -180.782590666442 | etot = -137.297116490902
12900  ekin = 20.8735551357447 |  erot = 21.2610214128848 | edyn = 42.1345765486296 | ebond = 8.70256797665377 | eexcv = 0.0212838876033452 | estk = -142.411994143333 | ehbond = -30.7175536602671 | exstk = -19.6430392481263 | ecoaxstk = 0 | edh = 5.63339812220922 | epot = -178.41533706526 | etot = -136.280760516631
13000  ekin = 26.6224896981138 |  erot = 21.8422226958677 | edyn = 48.4647123939815 | ebond = 7.93259844224344 | eexcv = 0 | estk = -143.186061156302 | ehbond = -31.2738994586371 | exstk = -20.4323698913291 | ecoaxstk = 0 | edh = 5.67253638943904 | epot = -181.287195674585 | etot = -132.822483280604
13100  ekin = 23.5763107320861 |  erot = 22.4577148236288 | edyn = 46.0340255557149 | ebond = 7.02605103294113 | eexcv = 0 | estk = -141.343645718517 | ehbond = -29.9559271039613 | exstk = -21.1863687167707 | ecoaxstk = 0 | edh = 5.67901699826392 | epot = -179.780873508044 | etot = -133.746847952329
13200  ekin = 22.5947288696306 |  erot = 23.8119851290108 | edyn = 46.4067139986414 | ebond = 6.16646149333827 | eexcv = 0.00206765354372481 | estk = -141.622162697119 | ehbond = -29.4120081962838 | exstk = -21.4698291863823 | ecoaxstk = 0 | edh = 5.86441948768648 | epot = -180.471051445216 | etot = -134.064337446575
13300  ekin = 23.6460215503919 |  erot = 21.006649384611 | edyn = 44.652670935003 | ebond = 7.01032464725105 | eexcv = 0 | estk = -146.678401077954 | ehbond = -28.18505692979 | exstk = -20.6083970827722 | ecoaxstk = 0 | edh = 5.84918740299679 | epot = -182.612343040268 | etot = -137.959672105265
13400  ekin = 24.6990067554618 |  erot = 20.7785084100323 | edyn = 45.4775151654941 | ebond = 6.19859567944293 | eexcv = 0 | estk = -142.642871718455 | ehbond = -28.6204368126487 | exstk = -19.9784285905219 | ecoaxstk = 0 | edh = 5.6871036167391 | epot = -179.356037825443 | etot = -133.878522659949
13500  ekin = 23.8898890375906 |  erot = 23.337516362163 | edyn = 47.2274053997536 | ebond = 6.89537696636003 | eexcv = 0 | estk = -143.034257908017 | ehbond = -28.7439043996698 | exstk = -22.5216364293232 | ecoaxstk = 0 | edh = 5.61040225551341 | epot = -181.794019515137 | etot = -134.566614115383
13600  ekin = 21.5968745696503 |  erot = 22.1946152741718 | edyn = 43.7914898438221 | ebond = 8.09439732128864 | eexcv = 0 | estk = -141.386148634987 | ehbond = -29.2672054534462 | exstk = -21.4170092270872 | ecoaxstk = 0 | edh = 5.55198126534707 | epot = -178.423984728885 | etot = -134.632494885063
13700  ekin = 22.1964783548285 |  erot = 24.5199062316116 | edyn = 46.7163845864401 | ebond = 7.42730844953556 | eexcv = 0 | estk = -142.317227518718 | ehbond = -31.3562693980772 | exstk = -22.3682141596289 | ecoaxstk = 0 | edh = 5.53065489586023 | epot = -183.083747731028 | etot = -136.367363144588
13800  ekin = 20.7311669207437 |  erot = 20.5170829929566 | edyn = 41.2482499137003 | ebond = 7.48704355240077 | eexcv = 0 | estk = -141.471743871899 | ehbond = -31.8909886289196 | exstk = -21.6225438283958 | ecoaxstk = 0 | edh = 5.42981145003349 | epot = -182.06842132678 | etot = -140.820171413079
13900  ekin = 21.4413176731027 |  erot = 23.1088518067461 | edyn = 44.5501694798488 | ebond = 6.77243638610946 | eexcv = 1.16843162399726e-05 | estk = -143.345184906017 | ehbond = -31.4304879990471 | exstk = -22.9661081645707 | ecoaxstk = 0 | edh = 5.37634145097087 | epot = -185.592991548238 | etot = -141.042822068389
14000  ekin = 22.8983838430128 |  erot = 22.6309489599785 | edyn = 45.5293328029913 | ebond = 7.22066305506458 | eexcv = 0 | estk = -140.502525442718 | ehbond = -32.3516920480807 | exstk = -21.8546112295893 | ecoaxstk = 0 | edh = 5.36531145727403 | epot = -182.12285420805 | etot = -136.593521405059
14100  ekin = 23.6145772084508 |  erot = 21.5881199275433 | edyn = 45.2026971359941 | ebond = 6.78246642760862 | eexcv = 0.0241124137729534 | estk = -140.674656331739 | ehbond = -29.4631916806961 | exstk = -23.5859593342872 | ecoaxstk = 0 | edh = 5.36018171495042 | epot = -181.55704679039 | etot = -136.354349654396
14200  ekin = 21.4508720361893 |  erot = 19.779924929142 | edyn = 41.2307969653313 | ebond = 5.59674514466028 | eexcv = 0 | estk = -140.208829792747 | ehbond = -30.8794258340655 | exstk = -22.7766238623156 | ecoaxstk = 0 | edh = 5.4094237523232 | epot = -182.858710592145 | etot = -141.627913626814
14300  ekin = 21.6752379352293 |  erot = 22.3728703647335 | edyn = 44.0481082999628 | ebond = 7.60700783594487 | eexcv = 0 | estk = -141.650567581614 | ehbond = -30.8592127289174 | exstk = -22.3349882580631 | ecoaxstk = 0 | edh = 5.43153512146454 | epot = -181.806225611185 | etot = -137.758117311222
14400  ekin = 22.6852957027069 |  erot = 23.5722695951134 | edyn = 46.2575652978203 | ebond = 6.72946372915862 | eexcv = 0 | estk = -140.531650968154 | ehbond = -31.2370601499242 | exstk = -23.7364589699864 | ecoaxstk = 0 | edh = 5.41088204465832 | epot = -183.364824314248 | etot = -137.107259016428
14500  ekin = 21.7113742599361 |  erot = 19.9172478089081 | edyn = 41.6286220688442 | ebond = 6.48069088735872 | eexcv = 0 | estk = -139.56216636385 | ehbond = -28.7893775956541 | exstk = -23.0771070198045 | ecoaxstk = 0 | edh = 5.5859670906616 | epot = -179.361993001288 | etot = -137.733370932444
14600  ekin = 21.9184897147077 |  erot = 21.1009217978224 | edyn = 43.0194115125301 | ebond = 6.42866291416863 | eexcv = 0 | estk = -139.740923600295 | ehbond = -30.5756593987492 | exstk = -20.2807882486577 | ecoaxstk = 0 | edh = 5.56473925841759 | epot = -178.603969075116 | etot = -135.584557562586
14700  ekin = 22.5596844997213 |  erot = 25.2964329533074 | edyn = 47.8561174530287 | ebond = 7.58828258817021 | eexcv = 0 | estk = -141.518994672831 | ehbond = -28.8147832017685 | exstk = -20.5194191882592 | ecoaxstk = 0 | edh = 5.64632726191712 | epot = -177.618587212771 | etot = -129.762469759743
14800  ekin = 20.3838828554815 |  erot = 22.9324795637613 | edyn = 43.3163624192428 | ebond = 6.53777242689137 | eexcv = 0.00584353626892059 | estk = -138.09248510125 | ehbond = -28.6661324167631 | exstk = -22.882312036737 | ecoaxstk = 0 | edh = 5.61403670452344 | epot = -177.483276887066 | etot = -134.166914467823
14900  ekin = 21.2314610922231 |  erot = 21.9282915508553 | edyn = 43.1597526430784 | ebond = 6.76480081954585 | eexcv = 0 | estk = -140.746694563044 | ehbond = -29.0116685527978 | exstk = -22.3804572448517 | ecoaxstk = 0 | edh = 5.55009276725007 | epot = -179.823926773897 | etot = -136.664174130819
15000  ekin = 23.6841440402787 |  erot = 21.7326461730079 | edyn = 45.4167902132865 | ebond = 6.49251626639324 | eexcv = 0 | estk = -143.094749470139 | ehbond = -32.7051862201947 | exstk = -21.2607274306641 | ecoaxstk = 0 | edh = 5.45728906250559 | epot = -185.110857792099 | etot = -139.694067578812
15100  ekin = 22.7038082652977 |  erot = 23.5109463452274 | edyn = 46.2147546105251 | ebond = 6.01693091677585 | eexcv = 0 | estk = -141.658337910145 | ehbond = -34.6360821748754 | exstk = -23.3586877317998 | ecoaxstk = 0 | edh = 5.4720588234989 | epot = -188.164118076545 | etot = -141.94936346602
15200  ekin = 23.3081182527913 |  erot = 22.866070121899 | edyn = 46.1741883746902 | ebond = 5.64378652308764 | eexcv = 0 | estk = -141.644232423578 | ehbond = -30.4415502552426 | exstk = -24.1676984876429 | ecoaxstk = 0 | edh = 5.38664435605657 | epot = -185.223050287319 | etot = -139.048861912629
15300  ekin = 21.0283526784171 |  erot = 22.3841392949552 | edyn = 43.4124919733724 | ebond = 7.13007845778259 | eexcv = 0 | estk = -138.349089286961 | ehbond = -33.8327509934106 | exstk = -23.0482056380913 | ecoaxstk = 0 | edh = 5.50037506068815 | epot = -182.599592399993 | etot = -139.18710042662
15400  ekin = 22.3228466879321 |  erot = 24.1387193054991 | edyn = 46.4615659934312 | ebond = 6.54478377481157 | eexcv = 0 | estk = -143.039543942382 | ehbond = -31.3880798151785 | exstk = -22.5473458317735 | ecoaxstk = 0 | edh = 5.53012888080955 | epot = -184.900056933713 | etot = -138.438490940282
15500  ekin = 24.1401504389715 |  erot = 24.2690551566141 | edyn = 48.4092055955856 | ebond = 5.65462990776123 | eexcv = 0 | estk = -139.677592821533 | ehbond = -34.3109930421052 | exstk = -23.488401225503 | ecoaxstk = 0 | edh = 5.52567659118583 | epot = -186.296680590194 | etot = -137.887474994609
15600  ekin = 19.6386449735476 |  erot = 24.2030483443976 | edyn = 43.8416933179452 | ebond = 6.72842703189216 | eexcv = 0.00643781029268913 | estk = -140.94033027169 | ehbond = -34.6194521542714 | exstk = -22.3797603421026 | ecoaxstk = 0 | edh = 5.47071634758141 | epot = -185.733961578298 | etot = -141.892268260352
15700  ekin = 22.0537787063583 |  erot = 25.1849035980174 | edyn = 47.2386823043757 | ebond = 6.43415199989554 | eexcv = 0 | estk = -139.2347156133 | ehbond = -37.9840316715336 | exstk = -23.3025789687691 | ecoaxstk = 0 | edh = 5.43828771271287 | epot = -188.648886540994 | etot = -141.410204236618
15800  ekin = 23.0843596872507 |  erot = 22.9971829675693 | edyn = 46.0815426548199 | ebond = 6.27651270822578 | eexcv = 0 | estk = -140.933844242785 | ehbond = -37.5232579456561 | exstk = -23.5460181860902 | ecoaxstk = 0 | edh = 5.39154271014184 | epot = -190.335064956164 | etot = -144.253522301344
15900  ekin = 20.8436742753194 |  erot = 21.4172487118462 | edyn = 42.2609229871656 | ebond = 6.56979807909412 | eexcv = 0.00660346797929473 | estk = -139.403312834045 | ehbond = -39.0832691785563 | exstk = -23.0264176297252 | ecoaxstk = 0 | edh = 5.3475627202785 | epot = -189.589035374974 | etot = -147.328112387808
16000  ekin = 21.5524902475044 |  erot = 23.2033455873319 | edyn = 44.7558358348363 | ebond = 7.58581934802553 | eexcv = 0 | estk = -138.994331502811 | ehbond = -38.9328338702077 | exstk = -21.7417164312741 | ecoaxstk = 0 | edh = 5.35771820365424 | epot = -186.725344252613 | etot = -141.969508417777
16100  ekin = 22.7217772708103 |  erot = 23.1915542471547 | edyn = 45.913331517965 | ebond = 6.52548268645239 | eexcv = 0.000657712264278296 | estk = -140.24211667006 | ehbond = -39.7845560973415 | exstk = -22.3810773277358 | ecoaxstk = 0 | edh = 5.36635929350945 | epot = -190.515250402911 | etot = -144.601918884946
16200  ekin = 21.5191617283914 |  erot = 22.2887330398033 | edyn = 43.8078947681947 | ebond = 5.83464253121544 | eexcv = 0 | estk = -139.393653078914 | ehbond = -39.0146611738124 | exstk = -21.514754781854 | ecoaxstk = 0 | edh = 5.33761458026517 | epot = -188.7508119231 | etot = -144.942917154905
16300  ekin = 21.7582397622641 |  erot = 22.5494123211564 | edyn = 44.3076520834205 | ebond = 7.08472616776954 | eexcv = 0.00952950120533133 | estk = -139.162775388101 | ehbond = -38.7075459569133 | exstk = -21.8150236153137 | ecoaxstk = 0 | edh = 5.40834028484601 | epot = -187.182749006507 | etot = -142.875096923087
16400  ekin = 20.3684436234812 |  erot = 22.688225240968 | edyn = 43.0566688644493 | ebond = 6.51163596155147 | eexcv = 0.0237846667852842 | estk = -139.512509064101 | ehbond = -38.7892623429657 | exstk = -20.5034293017138 | ecoaxstk = 0 | edh = 5.33333186317526 | epot = -186.936448217268 | etot = -143.879779352819
16500  ekin = 22.9895565421286 |  erot = 24.302051693561 | edyn = 47.2916082356896 | ebond = 6.34729004619324 | eexcv = 0 | estk = -140.802114733519 | ehbond = -39.0344063225357 | exstk = -22.1107133593729 | ecoaxstk = 0 | edh = 5.3491150343586 | epot = -190.250829334876 | etot = -142.959221099186
16600  ekin = 21.7623074300937 |  erot = 21.4516438824001 | edyn = 43.2139513124938 | ebond = 6.91395079446156 | eexcv = 0 | estk = -140.851212523576 | ehbond = -38.2270220930243 | exstk = -21.7245924312811 | ecoaxstk = 0 | edh = 5.40679763640897 | epot = -188.482078617011 | etot = -145.268127304517
16700  ekin = 19.1819851338469 |  erot = 22.3296176406134 | edyn = 41.5116027744604 | ebond = 6.22075687182522 | eexcv = 0 | estk = -141.211042169111 | ehbond = -35.5402783045728 | exstk = -20.7306049416945 | ecoaxstk = 0 | edh = 5.44473316602053 | epot = -185.816435377533 | etot = -144.304832603073
16800  ekin = 22.2882913419071 |  erot = 20.997867579296 | edyn = 43.2861589212031 | ebond = 5.27826254797153 | eexcv = 0 | estk = -141.924055948103 | ehbond = -37.9593536052455 | exstk = -22.7220023540711 | ecoaxstk = 0 | edh = 5.27205293246227 | epot = -192.055096426986 | etot = -148.768937505783
16900  ekin = 20.2473919268568 |  erot = 20.3508317906281 | edyn = 40.5982237174849 | ebond = 4.9067213323029 | eexcv = 0.0234311132930974 | estk = -140.957818901901 | ehbond = -40.0762838307822 | exstk = -22.5093078457649 | ecoaxstk = 0 | edh = 5.26059988123513 | epot = -193.352658251617 | etot = -152.754434534132
17000  ekin = 21.3894308940014 |  erot = 22.0216448614664 | edyn = 43.4110757554678 | ebond = 6.78733788984195 | eexcv = 0 | estk = -139.948747947996 | ehbond = -40.2681373479957 | exstk = -22.3585583536252 | ecoaxstk = 0 | edh = 5.2192072544822 | epot = -190.568898505293 | etot = -147.157822749825
17100  ekin = 19.963433935544 |  erot = 24.8584971362007 | edyn = 44.8219310717447 | ebond = 7.53849528679722 | eexcv = 0 | estk = -138.45252578204 | ehbond = -37.3254026993812 | exstk = -22.4426555635994 | ecoaxstk = 0 | edh = 5.16485494945394 | epot = -185.517233808769 | etot = -140.695302737025
17200  ekin = 21.8841841793523 |  erot = 21.8500694929419 | edyn = 43.7342536722943 | ebond = 6.31850793010591 | eexcv = 0.00695673418654435 | estk = -138.70764004371 | ehbond = -38.0676568428591 | exstk = -23.0293387240675 | ecoaxstk = 0 | edh = 5.16904377271236 | epot = -188.310127173631 | etot = -144.575873501337
17300  ekin = 20.4515162930605 |  erot = 22.9080810450888 | edyn = 43.3595973381493 | ebond = 5.86547424929254 | eexcv = 0 | estk = -140.527973632124 | ehbond = -38.1164327342462 | exstk = -21.6771996860768 | ecoaxstk = 0 | edh = 5.23905756884826 | epot = -189.217074234306 | etot = -145.857476896157
17400  ekin = 21.8709367988663 |  erot = 22.963677452414 | edyn = 44.8346142512804 | ebond = 6.78348767200894 | eexcv = 0 | estk = -136.979089800105 | ehbond = -37.138355422027 | exstk = -23.2376506697329 | ecoaxstk = 0 | edh = 5.22094374226349 | epot = -185.350664477592 | etot = -140.516050226312
17500  ekin = 23.6407243901934 |  erot = 20.3213162127491 | edyn = 43.9620406029425 | ebond = 7.04402667553757 | eexcv = 0 | estk = -138.961945714496 | ehbond = -37.9811861150348 | exstk = -22.4699809551452 | ecoaxstk = 0 | edh = 5.2354706061482 | epot = -187.133615502991 | etot = -143.171574900048
17600  ekin = 22.6941792655072 |  erot = 22.7012501149049 | edyn = 45.3954293804121 | ebond = 7.34779736834436 | eexcv = 0 | estk = -141.879332516806 | ehbond = -36.2518831429884 | exstk = -22.6551252352886 | ecoaxstk = 0 | edh = 5.29609653997676 | epot = -188.142446986762 | etot = -142.74701760635
17700  ekin = 21.8836557970168 |  erot = 21.4646636621217 | edyn = 43.3483194591386 | ebond = 6.88988835474371 | eexcv = 0 | estk = -141.049868026628 | ehbond = -36.6120036827614 | exstk = -22.6015017411878 | ecoaxstk = 0 | edh = 5.27113803799811 | epot = -188.102347057835 | etot = -144.754027598697
17800  ekin = 21.2634139613364 |  erot = 24.4457289391691 | edyn = 45.7091429005055 | ebond = 6.50350364826258 | eexcv = 0 | estk = -142.395253596127 | ehbond = -34.3751727066732 | exstk = -21.7792567924024 | ecoaxstk = 0 | edh = 5.33245482590486 | epot = -186.713724621035 | etot = -141.004581720529
17900  ekin = 21.3196682180838 |  erot = 22.6517073471428 | edyn = 43.9713755652265 | ebond = 7.39620482635006 | eexcv = 0 | estk = -140.70182843634 | ehbond = -36.876088119179 | exstk = -22.7374091813775 | ecoaxstk = 0 | edh = 5.41018244007429 | epot = -187.508938470472 | etot = -143.537562905246
18000  ekin = 20.9606447307015 |  erot = 21.4402594915069 | edyn = 42.4009042222085 | ebond = 6.61922379341648 | eexcv = 0 | estk = -140.65816612949 | ehbond = -36.6153693334056 | exstk = -21.8446686196685 | ecoaxstk = 0 | edh = 5.42133656474596 | epot = -187.077643724401 | etot = -144.676739502193
18100  ekin = 22.1703087609557 |  erot = 21.7320437614823 | edyn = 43.902352522438 | ebond = 6.22864480399951 | eexcv = 0 | estk = -139.699545254888 | ehbond = -38.1339246903629 | exstk = -22.0369671984629 | ecoaxstk = 0 | edh = 5.37222218540492 | epot = -188.269570154309 | etot = -144.367217631871
18200  ekin = 24.1069368892794 |  erot = 23.5532370622091 | edyn = 47.6601739514885 | ebond = 8.61342526966139 | eexcv = 0 | estk = -141.405332849201 | ehbond = -38.1018468001314 | exstk = -22.8632113703248 | ecoaxstk = 0 | edh = 5.28384069582567 | epot = -188.473125054171 | etot = -140.812951102682
18300  ekin = 21.9446274940644 |  erot = 22.7591738662094 | edyn = 44.7038013602737 | ebond = 7.84165555688687 | eexcv = 0 | estk = -138.713156741395 | ehbond = -40.0250853033861 | exstk = -21.465019703278 | ecoaxstk = 0 | edh = 5.34945189742403 | epot = -187.012154293748 | etot = -142.308352933475
18400  ekin = 21.707335059606 |  erot = 23.0606914417243 | edyn = 44.7680265013303 | ebond = 6.62026759299567 | eexcv = 0 | estk = -139.887388687388 | ehbond = -38.4702522837138 | exstk = -23.3002181773865 | ecoaxstk = 0 | edh = 5.29528563883192 | epot = -189.742305916661 | etot = -144.97427941533
18500  ekin = 24.3972249826242 |  erot = 22.7307456901219 | edyn = 47.1279706727462 | ebond = 8.0037473399892 | eexcv = 0 | estk = -139.617188800889 | ehbond = -43.2053368412389 | exstk = -22.1370167445625 | ecoaxstk = 0 | edh = 5.24752137283637 | epot = -191.708273673865 | etot = -144.580303001119
18600  ekin = 21.2485694165517 |  erot = 22.8301178496559 | edyn = 44.0786872662076 | ebond = 6.81486076107903 | eexcv = 0 | estk = -140.72862299326 | ehbond = -40.528245753571 | exstk = -22.0289159842297 | ecoaxstk = 0 | edh = 5.26630910925433 | epot = -191.204614860728 | etot = -147.12592759452
18700  ekin = 25.9155507345206 |  erot = 22.8366773317642 | edyn = 48.7522280662847 | ebond = 7.90977611078712 | eexcv = 0 | estk = -139.545252926295 | ehbond = -37.5994041670865 | exstk = -20.8535556397697 | ecoaxstk = 0 | edh = 5.34647388609169 | epot = -184.741962736272 | etot = -135.989734669988
18800  ekin = 25.8829106632939 |  erot = 21.3635109999909 | edyn = 47.2464216632848 | ebond = 6.63152212219463 | eexcv = 0 | estk = -137.937831225068 | ehbond = -42.7529616979025 | exstk = -22.1365860092264 | ecoaxstk = 0 | edh = 5.33577085142018 | epot = -190.860085958582 | etot = -143.613664295298
18900  ekin = 22.9294477932563 |  erot = 24.0245503673786 | edyn = 46.9539981606349 | ebond = 7.72991123063233 | eexcv = 0 | estk = -139.771516885284 | ehbond = -37.7904696980779 | exstk = -21.3208091601489 | ecoaxstk = 0 | edh = 5.32154876152983 | epot = -185.831335751348 | etot = -138.877337590714
19000  ekin = 21.9562650592368 |  erot = 23.2745830520269 | edyn = 45.2308481112637 | ebond = 7.08636183806635 | eexcv = 0 | estk = -137.677891459297 | ehbond = -40.2434909762692 | exstk = -22.7539447231896 | ecoaxstk = 0 | edh = 5.31923644188231 | epot = -188.269728878807 | etot = -143.038880767543
19100  ekin = 20.3004164961995 |  erot = 22.1540576246474 | edyn = 42.4544741208469 | ebond = 7.10970885364474 | eexcv = 0 | estk = -135.033572350948 | ehbond = -42.5322231671506 | exstk = -23.92361088607 | ecoaxstk = 0 | edh = 5.23782193180533 | epot = -189.141875618718 | etot = -146.687401497871
19200  ekin = 23.5901206610385 |  erot = 21.8904661330823 | edyn = 45.4805867941207 | ebond = 6.49409124598208 | eexcv = 0 | estk = -139.409073346969 | ehbond = -41.9835026201385 | exstk = -24.0456454113251 | ecoaxstk = 0 | edh = 5.35339784532586 | epot = -193.590732287125 | etot = -148.110145493004
19300  ekin = 23.5580212873429 |  erot = 20.7979194426816 | edyn = 44.3559407300246 | ebond = 5.99074467220113 | eexcv = 0 | estk = -136.721072474905 | ehbond = -41.3939327084245 | exstk = -21.9925173320677 | ecoaxstk = 0 | edh = 5.35368742725541 | epot = -188.763090415941 | etot = -144.407149685917
19400  ekin = 21.4981210902066 |  erot = 22.8170101828582 | edyn = 44.3151312730648 | ebond = 7.30663828711665 | eexcv = 0 | estk = -136.905016663602 | ehbond = -41.3803875619234 | exstk = -21.7931196349015 | ecoaxstk = 0 | edh = 5.36600293128728 | epot = -187.405882642023 | etot = -143.090751368959
19500  ekin = 22.0998062221081 |  erot = 23.5448754973779 | edyn = 45.6446817194861 | ebond = 6.62058083592505 | eexcv = 0 | estk = -139.26935728209 | ehbond = -38.3377621890113 | exstk = -21.574013875521 | ecoaxstk = 0 | edh = 5.37673233417496 | epot = -187.183820176522 | etot = -141.539138457036
19600  ekin = 22.9339684454262 |  erot = 21.9700323831711 | edyn = 44.9040008285973 | ebond = 8.10774286206471 | eexcv = 0 | estk = -139.737407761737 | ehbond = -39.69291889135 | exstk = -20.9247566023381 | ecoaxstk = 0 | edh = 5.41027813699136 | epot = -186.837062256369 | etot = -141.933061427772
19700  ekin = 22.021468746548 |  erot = 22.0582875343987 | edyn = 44.0797562809467 | ebond = 8.3641515191628 | eexcv = 0 | estk = -139.042124214259 | ehbond = -38.7200072345654 | exstk = -24.471061893801 | ecoaxstk = 0 | edh = 5.34856360383411 | epot = -188.520478219629 | etot = -144.440721938682
19800  ekin = 23.0102944870501 |  erot = 21.2238594893729 | edyn = 44.234153976423 | ebond = 7.30204606706445 | eexcv = 0 | estk = -138.490979195474 | ehbond = -42.9056502996165 | exstk = -22.5175384935888 | ecoaxstk = 0 | edh = 5.4346468317221 | epot = -191.177475089892 | etot = -146.943321113469
19900  ekin = 22.637468570127 |  erot = 19.6983468047924 | edyn = 42.3358153749194 | ebond = 6.09262610580739 | eexcv = 0 | estk = -139.354412930238 | ehbond = -41.3079082671481 | exstk = -20.4852760665955 | ecoaxstk = 0 | edh = 5.48025489171329 | epot = -189.574716266461 | etot = -147.238900891541
20000  ekin = 22.4628033939132 |  erot = 23.1283068640324 | edyn = 45.5911102579457 | ebond = 6.93578180967671 | eexcv = 0 | estk = -138.118584180057 | ehbond = -40.6315893906034 | exstk = -22.1262075480787 | ecoaxstk = 0 | edh = 5.30147734296486 | epot = -188.639121966097 | etot = -143.048011708151
20100  ekin = 23.5429927404615 |  erot = 21.6162649530047 | edyn = 45.1592576934663 | ebond = 8.17638562079713 | eexcv = 0 | estk = -138.294390762488 | ehbond = -40.6833596519401 | exstk = -21.2586899450126 | ecoaxstk = 0 | edh = 5.24310429677785 | epot = -186.816950441866 | etot = -141.657692748399
20200  ekin = 23.7810422561385 |  erot = 19.4038980528526 | edyn = 43.1849403089911 | ebond = 6.50125089452938 | eexcv = 0 | estk = -137.976847364924 | ehbond = -43.0535854384504 | exstk = -20.2323486087037 | ecoaxstk = 0 | edh = 5.32593037034055 | epot = -189.435600147208 | etot = -146.250659838217
20300  ekin = 23.3813427886413 |  erot = 23.3969697745472 | edyn = 46.7783125631885 | ebond = 6.93160178364079 | eexcv = 0 | estk = -140.191571566669 | ehbond = -40.9032540207564 | exstk = -22.3955956004477 | ecoaxstk = 0 | edh = 5.33729858234804 | epot = -191.221520821884 | etot = -144.443208258696
20400  ekin = 23.9274605366346 |  erot = 22.4421002645176 | edyn = 46.3695608011523 | ebond = 7.58666385461343 | eexcv = 0 | estk = -138.561134754161 | ehbond = -39.6841249813809 | exstk = -22.1644848029386 | ecoaxstk = 0 | edh = 5.33944209633371 | epot = -187.483638587533 | etot = -141.114077786381
20500  ekin = 23.0515554334407 |  erot = 23.7481021186553 | edyn = 46.799657552096 | ebond = 7.57408888796777 | eexcv = 0.0125786639700389 | estk = -135.749090704697 | ehbond = -41.581333973937 | exstk = -22.5774914291942 | ecoaxstk = 0 | edh = 5.27091277177055 | epot = -187.05033578412 | etot = -140.250678232024
20600  ekin = 23.5638619348038 |  erot = 22.4114637438908 | edyn = 45.9753256786947 | ebond = 8.21918242301536 | eexcv = 0 | estk = -137.667378555609 | ehbond = -39.6001007041112 | exstk = -22.3859519118056 | ecoaxstk = 0 | edh = 5.22545797544769 | epot = -186.208790773062 | etot = -140.233465094368
20700  ekin = 22.0828150884688 |  erot = 20.9159824612048 | edyn = 42.9987975496736 | ebond = 6.92091291737637 | eexcv = 0 | estk = -134.985907920815 | ehbond = -40.6554853049753 | exstk = -23.1905887576517 | ecoaxstk = 0 | edh = 5.19923111459454 | epot = -186.711837951471 | etot = -143.713040401797
20800  ekin = 22.828907512656 |  erot = 23.1152155202019 | edyn = 45.9441230328578 | ebond = 6.19875104298917 | eexcv = 0 | estk = -133.970357502609 | ehbond = -42.8997992173821 | exstk = -23.9015694024343 | ecoaxstk = 0 | edh = 5.14099466905745 | epot = -189.431980410379 | etot = -143.487857377521
20900  ekin = 20.6581109613669 |  erot = 20.4403720366447 | edyn = 41.0984829980116 | ebond = 6.5664012389779 | eexcv = 0.000161732219342495 | estk = -134.737647905652 | ehbond = -42.1924605617845 | exstk = -24.139454031606 | ecoaxstk = 0 | edh = 5.19805640282755 | epot = -189.304943125017 | etot = -148.206460127006
21000  ekin = 20.0708863385855 |  erot = 19.6677961101662 | edyn = 39.7386824487516 | ebond = 8.4596083516162 | eexcv = 0 | estk = -136.230747390196 | ehbond = -41.4669206221538 | exstk = -22.8496901139997 | ecoaxstk = 0 | edh = 5.2203539173897 | epot = -186.867395857344 | etot = -147.128713408592
21100  ekin = 23.3597694088241 |  erot = 22.7328562292305 | edyn = 46.0926256380545 | ebond = 7.26126478750327 | eexcv = 0 | estk = -134.784470092135 | ehbond = -42.8809013993034 | exstk = -23.0618928179551 | ecoaxstk = 0 | edh = 5.16159086409714 | epot = -188.304408657794 | etot = -142.211783019739
21200  ekin = 22.7442123231187 |  erot = 23.2951133220123 | edyn = 46.039325645131 | ebond = 6.05748636055634 | eexcv = 0 | estk = -134.791984610517 | ehbond = -41.2955805392064 | exstk = -22.6249324032062 | ecoaxstk = 0 | edh = 5.28470866145368 | epot = -187.370302530919 | etot = -141.330976885788
21300  ekin = 22.6591272104266 |  erot = 24.7013609474208 | edyn = 47.3604881578474 | ebond = 7.40679577545042 | eexcv = 0.0321456722583563 | estk = -132.608027509047 | ehbond = -44.3962665930015 | exstk = -23.4061195652662 | ecoaxstk = 0 | edh = 5.22157891308236 | epot = -187.749893306523 | etot = -140.389405148676
21400  ekin = 20.4094204373465 |  erot = 21.7554466996052 | edyn = 42.1648671369517 | ebond = 7.16742330849117 | eexcv = 0 | estk = -134.026324597234 | ehbond = -42.3900615069869 | exstk = -22.4897977898309 | ecoaxstk = 0 | edh = 5.29766309774243 | epot = -186.441097487818 | etot = -144.276230350866
21500  ekin = 21.6380844479279 |  erot = 23.0963454215083 | edyn = 44.7344298694362 | ebond = 7.4666945487592 | eexcv = 0.0440640356051459 | estk = -136.569684806754 | ehbond = -43.978585645256 | exstk = -22.2262667743353 | ecoaxstk = 0 | edh = 5.33809606917935 | epot = -189.925682572802 | etot = -145.191252703366
21600  ekin = 21.8605760635989 |  erot = 21.6477294883064 | edyn = 43.5083055519053 | ebond = 7.86826975424415 | eexcv = 0 | estk = -137.690282112366 | ehbond = -40.6802781582322 | exstk = -21.5755609223772 | ecoaxstk = 0 | edh = 5.32278378535488 | epot = -186.755067653377 | etot = -143.246762101471
21700  ekin = 22.2797004354414 |  erot = 21.0418964766935 | edyn = 43.321596912135 | ebond = 8.65206053085606 | eexcv = 0.0788600986238158 | estk = -140.456042273861 | ehbond = -41.593815868113 | exstk = -20.7321115104193 | ecoaxstk = 0 | edh = 5.42585170317774 | epot = -188.625197319735 | etot = -145.3036004076
21800  ekin = 22.0774389525859 |  erot = 22.5440869088135 | edyn = 44.6215258613994 | ebond = 7.73446363741996 | eexcv = 0 | estk = -137.858453236041 | ehbond = -40.7714272019792 | exstk = -20.5256960829231 | ecoaxstk = 0 | edh = 5.40560015621872 | epot = -186.015512727305 | etot = -141.393986865905
21900  ekin = 25.1512574113169 |  erot = 28.0248664857241 | edyn = 53.176123897041 | ebond = 5.95447033092237 | eexcv = 0 | estk = -136.991254544016 | ehbond = -42.1003176609572 | exstk = -21.1355705874697 | ecoaxstk = 0 | edh = 5.38756151247737 | epot = -188.885110949043 | etot = -135.708987052002
22000  ekin = 22.3900854770718 |  erot = 21.5352660058105 | edyn = 43.9253514828822 | ebond = 5.85736393471304 | eexcv = 0 | estk = -135.252238459434 | ehbond = -39.904484481824 | exstk = -21.3338768693436 | ecoaxstk = 0 | edh = 5.37951348224174 | epot = -185.253722393647 | etot = -141.328370910765
22100  ekin = 23.5306898461091 |  erot = 19.6942874696693 | edyn = 43.2249773157784 | ebond = 5.80513668395541 | eexcv = 0.024646581100625 | estk = -139.408659473705 | ehbond = -40.0576506589393 | exstk = -20.82695044249 | ecoaxstk = 0 | edh = 5.47757121460702 | epot = -188.985906095471 | etot = -145.760928779693
22200  ekin = 22.3744765177404 |  erot = 21.4001401125775 | edyn = 43.7746166303179 | ebond = 5.22032089920014 | eexcv = 0 | estk = -133.718273283508 | ehbond = -40.9958278303744 | exstk = -21.7821205487562 | ecoaxstk = 0 | edh = 5.42370474124916 | epot = -185.852196022189 | etot = -142.077579391871
22300  ekin = 22.5815861109346 |  erot = 22.418818696052 | edyn = 45.0004048069866 | ebond = 6.72802159977345 | eexcv = 0 | estk = -137.991386021655 | ehbond = -38.9513071332453 | exstk = -21.0748124725675 | ecoaxstk = -5.47798384144181e-05 | edh = 5.36214142888906 | epot = -185.927397378643 | etot = -140.926992571657
22400  ekin = 20.1435708310126 |  erot = 21.7120861906171 | edyn = 41.8556570216296 | ebond = 6.14834589976729 | eexcv = 0.0521320031441547 | estk = -138.172539604252 | ehbond = -39.7556050660784 | exstk = -20.2097987729906 | ecoaxstk = 0 | edh = 5.42094782313533 | epot = -186.516517717274 | etot = -144.660860695644
22500  ekin = 24.7379097404809 |  erot = 21.0548134037937 | edyn = 45.7927231442746 | ebond = 6.88545722944604 | eexcv = 0.0335577511541695 | estk = -138.767333446013 | ehbond = -40.4370450823433 | exstk = -21.1705009313292 | ecoaxstk = 0 | edh = 5.37690658439145 | epot = -188.078957894694 | etot = -142.286234750419
22600  ekin = 20.8498412395526 |  erot = 22.0527695497619 | edyn = 42.9026107893145 | ebond = 7.42969150097115 | eexcv = 0 | estk = -136.308211663422 | ehbond = -41.101135579998 | exstk = -19.7190935251632 | ecoaxstk = 0 | edh = 5.39365931816565 | epot = -184.305089949447 | etot = -141.402479160132
22700  ekin = 22.7647734066495 |  erot = 21.9301530172281 | edyn = 44.6949264238776 | ebond = 7.62734328689488 | eexcv = 0 | estk = -139.606101450078 | ehbond = -40.3951372416805 | exstk = -22.0851262311762 | ecoaxstk = 0 | edh = 5.30273842178181 | epot = -189.156283214258 | etot = -144.461356790381
22800  ekin = 21.1705651698921 |  erot = 22.3297369977692 | edyn = 43.5003021676613 | ebond = 7.35591661502416 | eexcv = 0 | estk = -141.483311271418 | ehbond = -40.0560957475668 | exstk = -21.8374247503801 | ecoaxstk = 0 | edh = 5.30394577937741 | epot = -190.716969374963 | etot = -147.216667207302
22900  ekin = 23.4791400511593 |  erot = 21.4490084255951 | edyn = 44.9281484767544 | ebond = 7.792146344126 | eexcv = 0 | estk = -137.699172894264 | ehbond = -43.0089298328745 | exstk = -22.7059177540516 | ecoaxstk = 0 | edh = 5.39087644048353 | epot = -190.23099769658 | etot = -145.302849219826
23000  ekin = 21.0570407600608 |  erot = 24.5193548853962 | edyn = 45.576395645457 | ebond = 7.94113250371092 | eexcv = 0 | estk = -138.209151656499 | ehbond = -41.569908004885 | exstk = -22.5317201060551 | ecoaxstk = 0 | edh = 5.39370720043806 | epot = -188.97594006329 | etot = -143.399544417833
23100  ekin = 20.95838863077 |  erot = 21.4915135895636 | edyn = 42.4499022203336 | ebond = 7.80179979558692 | eexcv = 0 | estk = -139.820336233422 | ehbond = -42.0562205854851 | exstk = -21.400822154506 | ecoaxstk = 0 | edh = 5.40480043637732 | epot = -190.070778741449 | etot = -147.620876521116
23200  ekin = 21.2796813375951 |  erot = 22.689288998146 | edyn = 43.9689703357411 | ebond = 5.82663604071142 | eexcv = 0 | estk = -137.887573742819 | ehbond = -41.5167580956788 | exstk = -21.896507526256 | ecoaxstk = 0 | edh = 5.29832940250616 | epot = -190.175873921537 | etot = -146.206903585796
23300  ekin = 22.0617007135778 |  erot = 23.9253758691332 | edyn = 45.987076582711 | ebond = 7.6360291010183 | eexcv = 0.0595164099483169 | estk = -139.939543350701 | ehbond = -39.4496262229946 | exstk = -23.0053674524124 | ecoaxstk = 0 | edh = 5.28136114848156 | epot = -189.41763036666 | etot = -143.430553783949
23400  ekin = 21.7612168550897 |  erot = 22.4651011055657 | edyn = 44.2263179606554 | ebond = 6.39393662026952 | eexcv = 0 | estk = -137.997482189048 | ehbond = -39.2958196962367 | exstk = -23.5159455899689 | ecoaxstk = 0 | edh = 5.26311282304786 | epot = -189.152198031937 | etot = -144.925880071281
23500  ekin = 25.4791304142199 |  erot = 20.8265188460376 | edyn = 46.3056492602575 | ebond = 6.49383298529799 | eexcv = 0 | estk = -139.532718425464 | ehbond = -41.3354718375298 | exstk = -22.2726086001865 | ecoaxstk = 0 | edh = 5.2097087496853 | epot = -191.437257128197 | etot = -145.13160786794
23600  ekin = 22.0175697939762 |  erot = 22.9419410527775 | edyn = 44.9595108467537 | ebond = 6.69040690509379 | eexcv = 0 | estk = -136.152941012759 | ehbond = -41.9966488871719 | exstk = -22.4776189098945 | ecoaxstk = 0 | edh = 5.24174935542771 | epot = -188.695052549304 | etot = -143.73554170255
[...]
494000  ekin = 20.7652677122513 |  erot = 22.6985438944789 | edyn = 43.4638116067302 | ebond = 8.10859221569072 | eexcv = 0 | estk = -139.114132226631 | ehbond = -57.3811310755939 | exstk = -25.8835338248199 | ecoaxstk = 0 | edh = 4.83325616850222 | epot = -209.436948742852 | etot = -165.973137136122
494100  ekin = 20.8078976614221 |  erot = 25.0266651317338 | edyn = 45.8345627931559 | ebond = 7.3848956765253 | eexcv = 0 | estk = -139.160913502311 | ehbond = -56.425900891342 | exstk = -24.5367208919048 | ecoaxstk = 0 | edh = 4.77609215891231 | epot = -207.96254745012 | etot = -162.127984656964
494200  ekin = 22.650352615694 |  erot = 21.9115400543177 | edyn = 44.5618926700116 | ebond = 6.4311129923649 | eexcv = 0 | estk = -139.699610111429 | ehbond = -56.1385454648805 | exstk = -24.6540812292447 | ecoaxstk = 0 | edh = 4.7974855314182 | epot = -209.263638281771 | etot = -164.701745611759
494300  ekin = 21.3471385801905 |  erot = 22.4189753526144 | edyn = 43.7661139328049 | ebond = 7.91207544070413 | eexcv = 0 | estk = -139.046077620393 | ehbond = -56.324964290322 | exstk = -25.826058284528 | ecoaxstk = 0 | edh = 4.89861122504066 | epot = -208.386413529498 | etot = -164.620299596694
494400  ekin = 22.3618715765321 |  erot = 23.2173799802379 | edyn = 45.57925155677 | ebond = 5.80072205261697 | eexcv = 0 | estk = -139.008042787259 | ehbond = -56.93475162937 | exstk = -24.6253342452157 | ecoaxstk = 0 | edh = 4.91261070471034 | epot = -209.854795904518 | etot = -164.275544347748
494500  ekin = 24.9609558379163 |  erot = 18.0245056315003 | edyn = 42.9854614694167 | ebond = 6.36460495645088 | eexcv = 0 | estk = -140.45498591834 | ehbond = -56.8130314072512 | exstk = -26.675210108654 | ecoaxstk = 0 | edh = 4.82793642986702 | epot = -212.750686047927 | etot = -169.76522457851
494600  ekin = 21.0680003085378 |  erot = 21.7325633202317 | edyn = 42.8005636287695 | ebond = 6.37760432004032 | eexcv = 0 | estk = -137.521667474507 | ehbond = -54.9321921800844 | exstk = -24.7094878072829 | ecoaxstk = 0 | edh = 4.82935129705325 | epot = -205.956391844781 | etot = -163.155828216012
494700  ekin = 21.1520223828227 |  erot = 20.9941915299159 | edyn = 42.1462139127385 | ebond = 8.15386830658318 | eexcv = 0 | estk = -136.21822822296 | ehbond = -58.4683648855619 | exstk = -24.4029339234961 | ecoaxstk = 0 | edh = 4.80709711069858 | epot = -206.128561614736 | etot = -163.982347701997
494800  ekin = 24.5834131288669 |  erot = 21.4100916643568 | edyn = 45.9935047932237 | ebond = 6.46344461074992 | eexcv = 0 | estk = -136.05840039948 | ehbond = -56.9125712124878 | exstk = -24.5802880890416 | ecoaxstk = 0 | edh = 4.80809627719017 | epot = -206.279718813069 | etot = -160.286214019845
494900  ekin = 24.8047065523506 |  erot = 22.8057137797007 | edyn = 47.6104203320513 | ebond = 6.9002317036263 | eexcv = 0.249371827877669 | estk = -135.680345390685 | ehbond = -57.3061980884587 | exstk = -23.6295841115591 | ecoaxstk = 0 | edh = 4.83903922968269 | epot = -204.627484829516 | etot = -157.017064497465
495000  ekin = 25.2641284177021 |  erot = 21.2411376883897 | edyn = 46.5052661060918 | ebond = 7.35492234232713 | eexcv = 0 | estk = -135.816476281657 | ehbond = -56.4867379824009 | exstk = -25.853814531447 | ecoaxstk = 0 | edh = 4.81432144691384 | epot = -205.987785006264 | etot = -159.482518900172
495100  ekin = 23.738752827606 |  erot = 22.6457151002651 | edyn = 46.3844679278711 | ebond = 6.59407060452239 | eexcv = 0 | estk = -138.405862365679 | ehbond = -55.3222838412652 | exstk = -22.6889432792833 | ecoaxstk = 0 | edh = 4.8233748134344 | epot = -204.999644068271 | etot = -158.6151761404
495200  ekin = 27.42970651784 |  erot = 24.2192623278468 | edyn = 51.6489688456867 | ebond = 7.23715312389451 | eexcv = 0 | estk = -140.871992771551 | ehbond = -52.7797407369261 | exstk = -23.27615376862 | ecoaxstk = 0 | edh = 4.79382957888866 | epot = -204.896904574314 | etot = -153.247935728627
495300  ekin = 23.6241624472057 |  erot = 21.8198361393785 | edyn = 45.4439985865842 | ebond = 7.2563026052539 | eexcv = 0 | estk = -139.11715055495 | ehbond = -55.6825289765188 | exstk = -25.1857930885786 | ecoaxstk = 0 | edh = 4.76003796155177 | epot = -207.969132053241 | etot = -162.525133466657
495400  ekin = 24.7488002587913 |  erot = 20.5862849613012 | edyn = 45.3350852200925 | ebond = 7.38530532683645 | eexcv = 0 | estk = -140.176445328925 | ehbond = -52.8908004111925 | exstk = -23.9967724072919 | ecoaxstk = 0 | edh = 4.87020327659801 | epot = -204.808509543975 | etot = -159.473424323883
495500  ekin = 22.4633982928962 |  erot = 21.3532105320613 | edyn = 43.8166088249575 | ebond = 7.55975380115374 | eexcv = 0 | estk = -136.327088937138 | ehbond = -54.6895691785722 | exstk = -25.6683000739948 | ecoaxstk = 0 | edh = 4.88891472758173 | epot = -204.236289660969 | etot = -160.419680836012
495600  ekin = 24.1267524674632 |  erot = 24.2238053425335 | edyn = 48.3505578099966 | ebond = 5.88006943184653 | eexcv = 0.063342501834918 | estk = -136.770564035519 | ehbond = -52.5064989032756 | exstk = -25.95356234402 | ecoaxstk = 0 | edh = 4.85667922272931 | epot = -204.430534126404 | etot = -156.079976316407
495700  ekin = 25.9324410487252 |  erot = 22.6388218575597 | edyn = 48.571262906285 | ebond = 6.16001074980144 | eexcv = 0 | estk = -133.811061870678 | ehbond = -53.490303199822 | exstk = -24.866615719547 | ecoaxstk = 0 | edh = 4.82366277414618 | epot = -201.184307266099 | etot = -152.613044359814
495800  ekin = 23.6536746742279 |  erot = 21.5242209705855 | edyn = 45.1778956448134 | ebond = 6.95861146822003 | eexcv = 0 | estk = -136.673079879089 | ehbond = -55.3393705108107 | exstk = -24.123242147722 | ecoaxstk = 0 | edh = 4.79518941251454 | epot = -204.381891656887 | etot = -159.203996012074
495900  ekin = 23.1258088105389 |  erot = 22.118899150791 | edyn = 45.2447079613298 | ebond = 5.48221904603854 | eexcv = 0 | estk = -135.81639942621 | ehbond = -56.5865910568 | exstk = -23.5365943524319 | ecoaxstk = 0 | edh = 4.84204216121591 | epot = -205.615323628188 | etot = -160.370615666858
496000  ekin = 23.0487468862084 |  erot = 22.0188971560937 | edyn = 45.0676440423021 | ebond = 7.04239095788814 | eexcv = 0 | estk = -138.6746130293 | ehbond = -56.8810611714058 | exstk = -25.3247024246164 | ecoaxstk = 0 | edh = 4.91292911049252 | epot = -208.925056556941 | etot = -163.857412514639
496100  ekin = 18.8161596257051 |  erot = 21.4494098331725 | edyn = 40.2655694588776 | ebond = 6.174475608621 | eexcv = 0 | estk = -139.518720278728 | ehbond = -54.983648770956 | exstk = -24.5489791183273 | ecoaxstk = 0 | edh = 4.92622766667658 | epot = -207.950644892714 | etot = -167.685075433836
496200  ekin = 21.1744685264272 |  erot = 22.6156861147255 | edyn = 43.7901546411527 | ebond = 6.71753825899871 | eexcv = 0 | estk = -139.089110735519 | ehbond = -57.6577530723912 | exstk = -23.3650612998608 | ecoaxstk = 0 | edh = 4.86214435702767 | epot = -208.532242491744 | etot = -164.742087850592
496300  ekin = 20.0931761671956 |  erot = 21.4248224073316 | edyn = 41.5179985745273 | ebond = 6.36554331591956 | eexcv = 0 | estk = -136.233390775275 | ehbond = -55.6473817609149 | exstk = -25.0019491130921 | ecoaxstk = 0 | edh = 4.78076672001651 | epot = -205.736411613346 | etot = -164.218413038819
496400  ekin = 23.1007508123761 |  erot = 22.4928186315286 | edyn = 45.5935694439047 | ebond = 8.70749119908412 | eexcv = 0 | estk = -138.273102733494 | ehbond = -58.8593650658006 | exstk = -25.6453822131109 | ecoaxstk = 0 | edh = 4.7501408648969 | epot = -209.320217948424 | etot = -163.72664850452
496500  ekin = 22.4666907011066 |  erot = 20.8812540455202 | edyn = 43.3479447466268 | ebond = 6.7955524202217 | eexcv = 0 | estk = -137.517278272702 | ehbond = -55.7359774837481 | exstk = -24.7225216810561 | ecoaxstk = 0 | edh = 4.81655448479981 | epot = -206.363670532485 | etot = -163.015725785858
496600  ekin = 24.781339505994 |  erot = 19.6063481844805 | edyn = 44.3876876904745 | ebond = 5.844671544395 | eexcv = 0 | estk = -136.851532509527 | ehbond = -57.8451280709555 | exstk = -24.5094658755196 | ecoaxstk = 0 | edh = 4.70876150946091 | epot = -208.652693402146 | etot = -164.265005711671
496700  ekin = 23.8057671432282 |  erot = 19.1414703729868 | edyn = 42.947237516215 | ebond = 7.3369650218454 | eexcv = 0 | estk = -138.251884388566 | ehbond = -57.9103992229461 | exstk = -26.0922977614961 | ecoaxstk = 0 | edh = 4.69098107632502 | epot = -210.226635274838 | etot = -167.279397758623
496800  ekin = 19.1865192188216 |  erot = 21.6607816209918 | edyn = 40.8473008398134 | ebond = 5.23866005487994 | eexcv = 0 | estk = -135.387333685904 | ehbond = -59.9201879933348 | exstk = -22.5838286281752 | ecoaxstk = 0 | edh = 4.80899951988538 | epot = -207.843690732649 | etot = -166.996389892836
496900  ekin = 21.5927289193431 |  erot = 22.5725969078611 | edyn = 44.1653258272042 | ebond = 6.97427888760422 | eexcv = 0 | estk = -139.095324465197 | ehbond = -54.180670757503 | exstk = -25.4251913696253 | ecoaxstk = 0 | edh = 4.78072928809306 | epot = -206.946178416628 | etot = -162.780852589424
497000  ekin = 19.73179393698 |  erot = 20.6455876702353 | edyn = 40.3773816072153 | ebond = 7.8595994339123 | eexcv = 0 | estk = -135.757948351203 | ehbond = -54.8691386328427 | exstk = -26.3181357835356 | ecoaxstk = 0 | edh = 4.76409929545794 | epot = -204.321524038211 | etot = -163.944142430996
497100  ekin = 20.6655158165359 |  erot = 20.6666777239332 | edyn = 41.3321935404691 | ebond = 8.84930712248397 | eexcv = 0 | estk = -135.250991064094 | ehbond = -58.6112246677822 | exstk = -24.8107348109619 | ecoaxstk = 0 | edh = 4.83918271790582 | epot = -204.984460702448 | etot = -163.652267161979
497200  ekin = 23.8611887196331 |  erot = 20.442179784348 | edyn = 44.303368503981 | ebond = 7.46275267267848 | eexcv = 0 | estk = -138.212515772716 | ehbond = -55.1436883919223 | exstk = -24.4898615971592 | ecoaxstk = 0 | edh = 4.95050635073087 | epot = -205.432806738388 | etot = -161.129438234407
497300  ekin = 21.6901254374269 |  erot = 22.0471595560434 | edyn = 43.7372849934703 | ebond = 7.40472983849703 | eexcv = 0 | estk = -136.674310020293 | ehbond = -54.8561264834647 | exstk = -25.6060958512634 | ecoaxstk = 0 | edh = 5.02580503165568 | epot = -204.705997484868 | etot = -160.968712491398
497400  ekin = 21.5659826993598 |  erot = 22.7398391938009 | edyn = 44.3058218931607 | ebond = 7.85133921001471 | eexcv = 0 | estk = -137.219137127438 | ehbond = -55.4904864310992 | exstk = -25.2285196225663 | ecoaxstk = 0 | edh = 4.96723246310692 | epot = -205.119571507982 | etot = -160.813749614821
497500  ekin = 22.3956093374065 |  erot = 22.1136204751707 | edyn = 44.5092298125772 | ebond = 5.95807782153489 | eexcv = 0 | estk = -140.390371280755 | ehbond = -57.2212175949819 | exstk = -24.0113543692667 | ecoaxstk = 0 | edh = 4.92194558970871 | epot = -210.74291983376 | etot = -166.233690021183
497600  ekin = 22.2289723384653 |  erot = 24.0494911190099 | edyn = 46.2784634574752 | ebond = 7.39987287460312 | eexcv = 0 | estk = -139.336059381091 | ehbond = -53.7056733162374 | exstk = -23.3480190866233 | ecoaxstk = 0 | edh = 4.92246428122589 | epot = -204.067414628122 | etot = -157.788951170647
497700  ekin = 21.4582212846486 |  erot = 23.8511888702385 | edyn = 45.3094101548871 | ebond = 7.62129506435065 | eexcv = 0 | estk = -137.773578842353 | ehbond = -58.060876626153 | exstk = -23.0389037961832 | ecoaxstk = 0 | edh = 4.83295443565047 | epot = -206.419109764688 | etot = -161.1096996098
497800  ekin = 20.0910427881959 |  erot = 24.0084040268899 | edyn = 44.0994468150858 | ebond = 6.22751530842923 | eexcv = 0 | estk = -136.507810070068 | ehbond = -54.8309265660387 | exstk = -25.1033476556572 | ecoaxstk = 0 | edh = 4.84284554679632 | epot = -205.371723436539 | etot = -161.272276621453
497900  ekin = 19.5810059441562 |  erot = 22.5092618124105 | edyn = 42.0902677565667 | ebond = 7.16905500234681 | eexcv = 0 | estk = -137.421307334887 | ehbond = -53.78003546126 | exstk = -25.6155451427938 | ecoaxstk = 0 | edh = 4.86743695037581 | epot = -204.780395986218 | etot = -162.690128229652
498000  ekin = 23.1318210779784 |  erot = 19.4429551647736 | edyn = 42.574776242752 | ebond = 8.03934084100491 | eexcv = 0 | estk = -138.420466403101 | ehbond = -57.0929675467289 | exstk = -25.3767699843697 | ecoaxstk = 0 | edh = 4.86786178239396 | epot = -207.983001310801 | etot = -165.408225068049
498100  ekin = 21.7231820661078 |  erot = 21.5301763329939 | edyn = 43.2533583991016 | ebond = 7.43573540510337 | eexcv = 0 | estk = -137.753600232042 | ehbond = -56.3558610858828 | exstk = -24.8232107034193 | ecoaxstk = 0 | edh = 4.88449009335535 | epot = -206.612446522885 | etot = -163.359088123784
498200  ekin = 22.2069185624572 |  erot = 22.2759187176059 | edyn = 44.4828372800631 | ebond = 7.97682069880151 | eexcv = 0 | estk = -137.290720553537 | ehbond = -56.0552645108612 | exstk = -24.5744032606594 | ecoaxstk = 0 | edh = 4.8813599371278 | epot = -205.062207689129 | etot = -160.579370409066
498300  ekin = 23.504935142157 |  erot = 20.7323387825832 | edyn = 44.2372739247402 | ebond = 6.85242748794453 | eexcv = 0 | estk = -140.078802498058 | ehbond = -54.5043844799469 | exstk = -25.309556729559 | ecoaxstk = 0 | edh = 4.82656026911418 | epot = -208.213755950505 | etot = -163.976482025765
498400  ekin = 20.0107974684398 |  erot = 23.0128855509448 | edyn = 43.0236830193846 | ebond = 6.51522826909634 | eexcv = 0 | estk = -138.185967636197 | ehbond = -55.2105675855892 | exstk = -24.3117270400993 | ecoaxstk = 0 | edh = 4.87461906499638 | epot = -206.318414927793 | etot = -163.294731908409
498500  ekin = 23.2738610696466 |  erot = 22.3732781479819 | edyn = 45.6471392176285 | ebond = 6.37702104777716 | eexcv = 0 | estk = -142.83933179747 | ehbond = -54.293432583032 | exstk = -24.1199633930198 | ecoaxstk = 0 | edh = 4.89570047811045 | epot = -209.980006247635 | etot = -164.332867030006
498600  ekin = 20.6501045293379 |  erot = 21.5533033340349 | edyn = 42.2034078633728 | ebond = 6.63343721605367 | eexcv = 0 | estk = -140.734234419375 | ehbond = -54.0250146111737 | exstk = -24.8641183684769 | ecoaxstk = 0 | edh = 4.88886116750831 | epot = -208.101069015463 | etot = -165.897661152091
498700  ekin = 20.1055889613108 |  erot = 22.7438729510516 | edyn = 42.8494619123623 | ebond = 7.44204266804103 | eexcv = 0 | estk = -139.853198549159 | ehbond = -54.5673623485803 | exstk = -24.5427253662753 | ecoaxstk = 0 | edh = 4.90995503596454 | epot = -206.61128856001 | etot = -163.761826647647
498800  ekin = 23.0337121421449 |  erot = 21.9082985462107 | edyn = 44.9420106883556 | ebond = 6.13400652348366 | eexcv = 0 | estk = -139.489431594574 | ehbond = -54.5942745399802 | exstk = -24.8379765094488 | ecoaxstk = 0 | edh = 4.86954741763715 | epot = -207.918128702882 | etot = -162.976118014527
498900  ekin = 20.0330133452389 |  erot = 26.6590315886628 | edyn = 46.6920449339018 | ebond = 7.16015546537004 | eexcv = 0 | estk = -136.941824876081 | ehbond = -55.1608500811105 | exstk = -24.8426746671814 | ecoaxstk = 0 | edh = 4.74815311693738 | epot = -205.037041042066 | etot = -158.344996108164
499000  ekin = 23.8844720927553 |  erot = 24.7579113236841 | edyn = 48.6423834164394 | ebond = 6.6999651727478 | eexcv = 0 | estk = -136.336617566701 | ehbond = -56.9612640644575 | exstk = -22.7052837972113 | ecoaxstk = 0 | edh = 4.74303871510163 | epot = -204.56016154052 | etot = -155.917778124081
499100  ekin = 22.4203432454203 |  erot = 21.9226156391355 | edyn = 44.3429588845559 | ebond = 7.35851189848669 | eexcv = 0 | estk = -138.627352257643 | ehbond = -56.1672165816625 | exstk = -25.2983736872982 | ecoaxstk = 0 | edh = 4.72000903384685 | epot = -208.01442159427 | etot = -163.671462709714
499200  ekin = 21.3539400677455 |  erot = 22.1067321596525 | edyn = 43.460672227398 | ebond = 7.36354098091341 | eexcv = 0 | estk = -136.056637383199 | ehbond = -58.463751268003 | exstk = -24.8417291931636 | ecoaxstk = 0 | edh = 4.73834410858915 | epot = -207.260232754863 | etot = -163.799560527465
499300  ekin = 21.3925827500147 |  erot = 23.217702919264 | edyn = 44.6102856692787 | ebond = 5.60216476703793 | eexcv = 0 | estk = -141.14816705892 | ehbond = -55.3835928377441 | exstk = -22.7802777888272 | ecoaxstk = 0 | edh = 4.80828186254644 | epot = -208.901591055907 | etot = -164.291305386628
499400  ekin = 21.5484249627908 |  erot = 23.1093945896094 | edyn = 44.6578195524003 | ebond = 6.44621261857 | eexcv = 0 | estk = -137.382886001679 | ehbond = -54.5348714037528 | exstk = -24.2074959566418 | ecoaxstk = 0 | edh = 4.79130068605018 | epot = -204.887740057454 | etot = -160.229920505053
499500  ekin = 20.1105288293586 |  erot = 24.813159675094 | edyn = 44.9236885044526 | ebond = 5.25685188091926 | eexcv = 0 | estk = -136.178534649233 | ehbond = -54.4599944049692 | exstk = -24.9938482477568 | ecoaxstk = 0 | edh = 4.76464325352318 | epot = -205.610882167517 | etot = -160.687193663064
499600  ekin = 23.513712197036 |  erot = 24.388682397204 | edyn = 47.9023945942399 | ebond = 6.49839410009564 | eexcv = 0 | estk = -139.221109479308 | ehbond = -56.1940978975118 | exstk = -23.1282788986616 | ecoaxstk = 0 | edh = 4.81961962337104 | epot = -207.225472552015 | etot = -159.323077957775
499700  ekin = 21.8558137196741 |  erot = 20.8970783514244 | edyn = 42.7528920710986 | ebond = 6.39582541238216 | eexcv = 0 | estk = -141.072367718531 | ehbond = -54.3860170777002 | exstk = -24.649313286384 | ecoaxstk = 0 | edh = 4.81755344243793 | epot = -208.894319227795 | etot = -166.141427156696
499800  ekin = 22.0172988533734 |  erot = 20.9849052080422 | edyn = 43.0022040614156 | ebond = 6.04055486378131 | eexcv = 0 | estk = -136.632557245199 | ehbond = -53.4289179725652 | exstk = -25.71513124867 | ecoaxstk = 0 | edh = 4.78192031994421 | epot = -204.954131282709 | etot = -161.951927221293
499900  ekin = 20.2086269810596 |  erot = 21.1280809738546 | edyn = 41.3367079549142 | ebond = 5.18690762038738 | eexcv = 0 | estk = -139.485328371572 | ehbond = -55.8842912826921 | exstk = -22.9833246745897 | ecoaxstk = 0 | edh = 4.84868603115114 | epot = -208.317350677316 | etot = -166.980642722402
500000  ekin = 19.4871033328055 |  erot = 21.0796040080017 | edyn = 40.5667073408072 | ebond = 7.28135221658059 | eexcv = 0 | estk = -142.566747660193 | ehbond = -56.6101264709763 | exstk = -24.9434516747503 | ecoaxstk = 0 | edh = 4.81121751122682 | epot = -212.027756078112 | etot = -171.461048737305
    500000   0.088376886   -1.4818183      0.049198326   -1.3009504     -5.2956747e-06  1000000      
Loop time of 41.9678 on 8 procs for 500000 steps with 148 atoms

Performance: 5146807.455 tau/day, 11913.906 timesteps/s, 1.763 Matom-step/s
99.9% CPU use with 8 MPI tasks x no OpenMP threads

MPI task timing breakdown:
Section |  min time  |  avg time  |  max time  |%varavg| %total
---------------------------------------------------------------
Pair    | 1.5356     | 14.995     | 27.937     | 211.3 | 35.73
Bond    | 0.054917   | 0.25763    | 0.38078    |  24.0 |  0.61
Neigh   | 0.010692   | 0.01073    | 0.010764   |   0.0 |  0.03
Comm    | 7.8293     | 20.054     | 31.853     | 160.7 | 47.78
Output  | 0.054286   | 0.061759   | 0.067187   |   1.8 |  0.15
Modify  | 3.5623     | 4.4581     | 4.9008     |  25.6 | 10.62
Other   |            | 2.13       |            |       |  5.08

Nlocal:           18.5 ave          33 max           0 min
Histogram: 2 0 0 0 2 0 0 2 0 2
Nghost:          129.5 ave         148 max         115 min
Histogram: 2 0 2 0 0 2 0 0 0 2
Neighs:         559.75 ave        1441 max           0 min
Histogram: 2 0 1 2 0 2 0 0 0 1

Total # of neighbors = 4478
Ave neighs/atom = 30.256757
Ave special neighs/atom = 6
Neighbor list builds = 521
Dangerous builds = 0

#write_data last_config.${number}.* nocoeff
#write_restart last_config.${number}.*
Total wall time: 0:00:41
