LAMMPS (30 Mar 2026 - Development - patch_30Mar2026-559-g96fcefc09d-modified)
OMP_NUM_THREADS environment is not set. Defaulting to 1 thread.
  using 1 OpenMP thread(s) per MPI task
variable number	equal 6
variable ofreq	equal 1000
variable efreq	equal 100
variable T      equal 0.1
variable rhos   equal 0.2
variable nsteps equal 500000

units lj

dimension 3

newton on

boundary  p p p

atom_style hybrid bond ellipsoid oxdna
WARNING: Atom style hybrid defines both, per-type and per-atom masses; both must be set, but only per-atom masses will be used (src/atom_vec_hybrid.cpp:132)
atom_modify sort 0 1.0

# Pair interactions require lists of neighbours to be calculated
neighbor 2.0 bin
neigh_modify every 1 delay 0 check yes

fix Basepairs all property/atom i_idc ghost yes
read_data data.dsring2 fix Basepairs NULL Basepairs
Reading data file ...
  orthogonal box = (0 0 0) to (100 100 100)
  2 by 2 by 2 MPI processor grid
  reading atoms ...
  148 atoms
  reading velocities ...
  148 velocities
  scanning bonds ...
  1 = max bonds/atom
  148 ellipsoids
  orthogonal box = (0 0 0) to (100 100 100)
  2 by 2 by 2 MPI processor grid
  reading bonds ...
  148 bonds
Finding 1-2 1-3 1-4 neighbors ...
  special bond factors lj:    0        0        0       
  special bond factors coul:  0        0        0       
     2 = max # of 1-2 neighbors
     2 = max # of 1-3 neighbors
     4 = max # of 1-4 neighbors
     6 = max # of special neighbors
  special bonds CPU = 0.000 seconds
  read_data CPU = 0.004 seconds

set atom * mass 3.1575
Setting atom values ...
  148 settings made for mass

group all type 1 4
148 atoms in group all

# oxDNA3 bond interactions - FENE backbone
bond_style hybrid oxdna3/fene
bond_coeff * oxdna3/fene oxdna3_lj.cgdna
Reading oxdna3 potential (fene) file oxdna3_lj.cgdna with DATE: 2026-03-26
special_bonds lj 0 1 1
Finding 1-2 1-3 1-4 neighbors ...
  special bond factors lj:    0        1        1       
  special bond factors coul:  0        0        0       
     2 = max # of 1-2 neighbors
     2 = max # of 1-3 neighbors
     4 = max # of 1-4 neighbors
     6 = max # of special neighbors
  special bonds CPU = 0.000 seconds

# oxDNA3 pair interactions
pair_style hybrid/overlay oxdna3/excv oxdna3/stk oxdna3/hbond oxdna3/xstk oxdna3/coaxstk oxdna3/dh
pair_coeff * * oxdna3/excv     oxdna3_lj.cgdna
Reading oxdna3 potential (excv) file oxdna3_lj.cgdna with DATE: 2026-03-26
pair_coeff * * oxdna3/stk      ${T} oxdna3_lj.cgdna
pair_coeff * * oxdna3/stk      0.1 oxdna3_lj.cgdna
Reading oxdna3 potential (stk) file oxdna3_lj.cgdna with DATE: 2026-03-26
pair_coeff * * oxdna3/hbond    oxdna3_lj.cgdna
Reading oxdna3 potential (hbond) file oxdna3_lj.cgdna with DATE: 2026-03-26
pair_coeff 1 4 oxdna3/hbond    oxdna3_lj.cgdna
Reading oxdna3 potential (hbond) file oxdna3_lj.cgdna with DATE: 2026-03-26
pair_coeff 2 3 oxdna3/hbond    oxdna3_lj.cgdna
Reading oxdna3 potential (hbond) file oxdna3_lj.cgdna with DATE: 2026-03-26
pair_coeff * * oxdna3/xstk     oxdna3_lj.cgdna
Reading oxdna3 potential (xstk) file oxdna3_lj.cgdna with DATE: 2026-03-26
pair_coeff * * oxdna3/coaxstk  oxdna3_lj.cgdna
Reading oxdna potential (coaxstk) file oxdna3_lj.cgdna with DATE: 2026-03-26
pair_coeff * * oxdna3/dh       ${T} ${rhos} oxdna2_lj.cgdna
pair_coeff * * oxdna3/dh       0.1 ${rhos} oxdna2_lj.cgdna
pair_coeff * * oxdna3/dh       0.1 0.2 oxdna2_lj.cgdna
Reading oxdna potential (dh) file oxdna2_lj.cgdna with DATE: 2026-03-04

# NVE ensemble
fix 1 all nve/asphere
fix 2 all langevin ${T} ${T} 2.5 457145 angmom 10
fix 2 all langevin 0.1 ${T} 2.5 457145 angmom 10
fix 2 all langevin 0.1 0.1 2.5 457145 angmom 10

timestep 5e-3

#comm_style tiled
fix 3 all balance 1000 1.03 shift xyz 10 1.03
comm_modify cutoff 5.8

compute quat all property/atom quatw quati quatj quatk

compute erot all erotate/asphere
compute ekin all ke
compute epot all pe

compute ebond all bond
compute eexcv all pair oxdna3/excv
compute estk  all pair oxdna3/stk
compute ehbond all pair oxdna3/hbond
compute exstk all pair oxdna3/xstk
compute ecoaxstk all pair oxdna3/coaxstk
compute edh all pair oxdna3/dh

variable erot equal c_erot
variable ekin equal c_ekin
variable edyn equal c_erot+c_ekin
variable epot equal c_epot
variable etot equal c_erot+c_ekin+c_epot

variable ebond equal c_ebond[1]
variable eexcv equal c_eexcv
variable estk equal c_estk
variable ehbond equal c_ehbond
variable exstk equal c_exstk
variable ecoaxstk equal c_ecoaxstk
variable edh equal c_edh

fix 5 all print ${efreq} "$(step)  ekin = ${ekin} |  erot = ${erot} | edyn = ${edyn} | ebond = ${ebond} | eexcv = ${eexcv} | estk = ${estk} | ehbond = ${ehbond} | exstk = ${exstk} | ecoaxstk = ${ecoaxstk} | edh = ${edh} | epot = ${epot} | etot = ${etot}" screen yes
fix 5 all print 100 "$(step)  ekin = ${ekin} |  erot = ${erot} | edyn = ${edyn} | ebond = ${ebond} | eexcv = ${eexcv} | estk = ${estk} | ehbond = ${ehbond} | exstk = ${exstk} | ecoaxstk = ${ecoaxstk} | edh = ${edh} | epot = ${epot} | etot = ${etot}" screen yes

dump out all custom ${ofreq} out.${number}.lammpstrj id mol type x y z ix iy iz vx vy vz c_quat[1] c_quat[2] c_quat[3] c_quat[4] angmomx angmomy angmomz
dump out all custom 1000 out.${number}.lammpstrj id mol type x y z ix iy iz vx vy vz c_quat[1] c_quat[2] c_quat[3] c_quat[4] angmomx angmomy angmomz
dump out all custom 1000 out.6.lammpstrj id mol type x y z ix iy iz vx vy vz c_quat[1] c_quat[2] c_quat[3] c_quat[4] angmomx angmomy angmomz
dump_modify out sort id
dump_modify out format line "%d %d %d  %22.15le %22.15le %22.15le  %d %d %d  %22.15le %22.15le %22.15le  %22.15le %22.15le %22.15le %22.15le  %22.15le %22.15le %22.15le"

run ${nsteps}
run 500000
Parsing unique base pairing
Generated 0 of 6 mixed pair_coeff terms from geometric mixing rule
Neighbor list info ...
  update: every = 1 steps, delay = 0 steps, check = yes
  max neighbors/atom: 2000, page size: 100000
  master list distance cutoff = 5.6389877
  ghost atom cutoff = 5.8
  binsize = 2.8194939, bins = 36 36 36
  5 neighbor lists, perpetual/occasional/extra = 5 0 0
  (1) pair oxdna3/excv, perpetual
      attributes: half, newton on
      pair build: half/bin/newton
      stencil: half/bin/3d
      bin: standard
  (2) pair oxdna3/hbond, perpetual, copy from (1)
      attributes: half, newton on
      pair build: copy
      stencil: none
      bin: none
  (3) pair oxdna3/xstk, perpetual, copy from (1)
      attributes: half, newton on
      pair build: copy
      stencil: none
      bin: none
  (4) pair oxdna3/coaxstk, perpetual, copy from (1)
      attributes: half, newton on
      pair build: copy
      stencil: none
      bin: none
  (5) pair oxdna3/dh, perpetual, copy from (1)
      attributes: half, newton on
      pair build: copy
      stencil: none
      bin: none
0  ekin = 19.744659331895 |  erot = 21.3988532109634 | edyn = 41.1435125428584 | ebond = 16.2817524512881 | eexcv = 0 | estk = -141.703048413232 | ehbond = 0 | exstk = -18.8354225862016 | ecoaxstk = 0 | edh = 4.93216542191501 | epot = -139.32455312623 | etot = -98.181040583372
Per MPI rank memory allocation (min/avg/max) = 8.99 | 9.026 | 9.099 Mbytes
   Step          Temp          E_pair         E_mol          TotEng         Press          Volume    
         0   0.08954494    -1.051394       0.11001184    -0.80797226     1.7233418e-05  1000000      
100  ekin = 23.94733532891 |  erot = 23.7704720087979 | edyn = 47.7178073377079 | ebond = 8.69737529079531 | eexcv = 0.0544057715316136 | estk = -135.990460804544 | ehbond = -0.223786896919582 | exstk = -22.1662754353982 | ecoaxstk = 0 | edh = 4.92375772905123 | epot = -144.704984345484 | etot = -96.9871770077762
200  ekin = 22.051271933065 |  erot = 22.2305072684824 | edyn = 44.2817792015475 | ebond = 6.81198846993812 | eexcv = 0.0732437137297945 | estk = -136.76405217773 | ehbond = -1.18398887361029 | exstk = -20.2346677108368 | ecoaxstk = 0 | edh = 5.05187886833965 | epot = -146.245597710169 | etot = -101.963818508622
300  ekin = 23.7382240094486 |  erot = 19.9887256917022 | edyn = 43.7269497011508 | ebond = 7.11100312135801 | eexcv = 0.117366314393908 | estk = -138.92145550899 | ehbond = -2.34563161373851 | exstk = -18.9966102617457 | ecoaxstk = 0 | edh = 5.1670471548597 | epot = -147.868280793862 | etot = -104.141331092712
400  ekin = 23.0940938091508 |  erot = 25.3511892040121 | edyn = 48.4452830131628 | ebond = 5.25132572279627 | eexcv = 0.0184890470933652 | estk = -138.784462675543 | ehbond = -3.29282884641458 | exstk = -20.3103820364558 | ecoaxstk = 0 | edh = 5.27521203799871 | epot = -151.842646750525 | etot = -103.397363737362
500  ekin = 23.423040194302 |  erot = 21.6528746404 | edyn = 45.075914834702 | ebond = 7.08654415453916 | eexcv = 0.011847904764181 | estk = -137.454780845191 | ehbond = -3.20075449260174 | exstk = -21.6636684033355 | ecoaxstk = 0 | edh = 5.25951745877177 | epot = -149.961294223053 | etot = -104.885379388351
600  ekin = 27.3379213178468 |  erot = 22.7875386329215 | edyn = 50.1254599507683 | ebond = 7.09634217162928 | eexcv = 0 | estk = -138.975482278541 | ehbond = -4.66594853670173 | exstk = -21.3696538793735 | ecoaxstk = 0 | edh = 5.21246260591863 | epot = -152.702279917068 | etot = -102.5768199663
700  ekin = 21.1825006235922 |  erot = 23.6879038800154 | edyn = 44.8704045036076 | ebond = 7.1857738938399 | eexcv = 0 | estk = -140.760385094542 | ehbond = -4.56774045168728 | exstk = -18.5511587115395 | ecoaxstk = 0 | edh = 5.29583706095799 | epot = -151.397673302971 | etot = -106.527268799363
800  ekin = 21.5079071689833 |  erot = 25.7198657769105 | edyn = 47.2277729458937 | ebond = 6.50730712736382 | eexcv = 0.00839494488533581 | estk = -141.155069306887 | ehbond = -4.53808860935808 | exstk = -18.0569547267229 | ecoaxstk = 0 | edh = 5.3467162479512 | epot = -151.887694322768 | etot = -104.659921376874
900  ekin = 23.8591479273024 |  erot = 22.4078207503346 | edyn = 46.266968677637 | ebond = 8.15882387872385 | eexcv = 0.0596738599106898 | estk = -137.165534353155 | ehbond = -5.47970713690739 | exstk = -17.17884451014 | ecoaxstk = 0 | edh = 5.25657526643801 | epot = -146.34901299513 | etot = -100.082044317493
1000  ekin = 25.1733128808656 |  erot = 21.4319411556232 | edyn = 46.6052540364887 | ebond = 7.25458329553631 | eexcv = 0 | estk = -140.397498957621 | ehbond = -5.90584921739623 | exstk = -18.3627640626957 | ecoaxstk = 0 | edh = 5.30823003235114 | epot = -152.103298909825 | etot = -105.498044873336
1100  ekin = 22.2608087403609 |  erot = 22.9289531740391 | edyn = 45.1897619144 | ebond = 7.59148823544622 | eexcv = 0.167034261164897 | estk = -139.025248167411 | ehbond = -7.20574241356643 | exstk = -19.6773782445984 | ecoaxstk = 0 | edh = 5.30884906476416 | epot = -152.840997264201 | etot = -107.651235349801
1200  ekin = 27.1897808224754 |  erot = 20.521258622738 | edyn = 47.7110394452134 | ebond = 8.65764694074235 | eexcv = 0.0438033629531463 | estk = -138.615637488627 | ehbond = -10.3237879197062 | exstk = -17.9258896144337 | ecoaxstk = 0 | edh = 5.35358204459489 | epot = -152.810282674477 | etot = -105.099243229263
1300  ekin = 24.1063379109112 |  erot = 23.5756233560615 | edyn = 47.6819612669726 | ebond = 7.00485464257385 | eexcv = 0 | estk = -142.246081047921 | ehbond = -9.50726223126854 | exstk = -19.5919024517712 | ecoaxstk = 0 | edh = 5.46639089716103 | epot = -158.874000191225 | etot = -111.192038924253
1400  ekin = 23.3939922752091 |  erot = 25.6560448399106 | edyn = 49.0500371151197 | ebond = 6.04823293600169 | eexcv = 0.0189212117137317 | estk = -139.544013118927 | ehbond = -10.85551564894 | exstk = -18.5660591481165 | ecoaxstk = 0 | edh = 5.54851582655145 | epot = -157.349917941716 | etot = -108.299880826597
1500  ekin = 22.8307818812306 |  erot = 21.6319887037691 | edyn = 44.4627705849997 | ebond = 8.25172825754912 | eexcv = 0 | estk = -143.412833004395 | ehbond = -11.454070340358 | exstk = -19.3065270805237 | ecoaxstk = 0 | edh = 5.70737905368151 | epot = -160.214323114046 | etot = -115.751552529047
1600  ekin = 24.6982305106867 |  erot = 21.0252708779908 | edyn = 45.7235013886774 | ebond = 7.90092672092638 | eexcv = 0 | estk = -143.605584669925 | ehbond = -11.4516854744158 | exstk = -21.3178822854559 | ecoaxstk = 0 | edh = 5.61761634969789 | epot = -162.856609359172 | etot = -117.133107970495
1700  ekin = 22.693754934369 |  erot = 21.4581670992193 | edyn = 44.1519220335882 | ebond = 8.32204986858047 | eexcv = 0.00199011200986008 | estk = -140.137834180391 | ehbond = -13.4766627995842 | exstk = -18.2900414173901 | ecoaxstk = 0 | edh = 5.69479778521749 | epot = -157.885700631558 | etot = -113.733778597969
1800  ekin = 22.1145774396382 |  erot = 24.9976373229083 | edyn = 47.1122147625465 | ebond = 8.28549084401874 | eexcv = 0.0947960213149587 | estk = -142.916076716141 | ehbond = -11.8878795937608 | exstk = -20.095206102731 | ecoaxstk = 0 | edh = 5.77942762324924 | epot = -160.73944792405 | etot = -113.627233161503
1900  ekin = 21.1905523166435 |  erot = 21.2102984458591 | edyn = 42.4008507625026 | ebond = 5.38386403845163 | eexcv = 0 | estk = -142.043158960103 | ehbond = -12.1785931685585 | exstk = -19.9716365166426 | ecoaxstk = 0 | edh = 5.74352608453366 | epot = -163.065998522318 | etot = -120.665147759816
2000  ekin = 22.4725437458044 |  erot = 22.7292716486307 | edyn = 45.201815394435 | ebond = 7.99218195831533 | eexcv = 0.0626037830175161 | estk = -143.712068330694 | ehbond = -12.9426306624026 | exstk = -19.2917911799025 | ecoaxstk = 0 | edh = 5.72543510317692 | epot = -162.166269328489 | etot = -116.964453934054
2100  ekin = 21.7661563256744 |  erot = 20.8602330327169 | edyn = 42.6263893583914 | ebond = 5.39325027061902 | eexcv = 0 | estk = -140.593894281504 | ehbond = -14.1150911946626 | exstk = -19.4894756163837 | ecoaxstk = 0 | edh = 5.67303599624876 | epot = -163.132174825683 | etot = -120.505785467291
2200  ekin = 20.4443565296466 |  erot = 19.6660593677218 | edyn = 40.1104158973684 | ebond = 6.44036980432869 | eexcv = 0.0422540656146295 | estk = -140.511965468484 | ehbond = -17.3272167263657 | exstk = -19.9231794092876 | ecoaxstk = 0 | edh = 5.80322593605929 | epot = -165.476511798135 | etot = -125.366095900766
2300  ekin = 22.8947169965063 |  erot = 21.154079541394 | edyn = 44.0487965379003 | ebond = 6.87400210640667 | eexcv = 0.00121077362259982 | estk = -139.928543120093 | ehbond = -17.6318229669256 | exstk = -21.4689626464417 | ecoaxstk = 0 | edh = 5.79287049729737 | epot = -166.361245356134 | etot = -122.312448818234
2400  ekin = 23.4022143995484 |  erot = 22.9737399662755 | edyn = 46.3759543658239 | ebond = 7.30330948231275 | eexcv = 0.00579366954668471 | estk = -140.213850391561 | ehbond = -18.1569510390409 | exstk = -22.1383728247506 | ecoaxstk = 0 | edh = 5.800320719248 | epot = -167.399750384245 | etot = -121.023796018421
2500  ekin = 20.5366075776809 |  erot = 24.2325801344253 | edyn = 44.7691877121062 | ebond = 8.14195812849476 | eexcv = 0 | estk = -137.31359246085 | ehbond = -18.9257934726827 | exstk = -20.472667721127 | ecoaxstk = 0 | edh = 5.79946805405486 | epot = -162.77062747211 | etot = -118.001439760004
2600  ekin = 24.173435021648 |  erot = 22.4245044612357 | edyn = 46.5979394828837 | ebond = 6.50933199474647 | eexcv = 0.051863341630228 | estk = -136.565339879889 | ehbond = -20.2674448453393 | exstk = -20.763297959826 | ecoaxstk = 0 | edh = 5.85264531153311 | epot = -165.182242037144 | etot = -118.584302554261
2700  ekin = 24.3857510026049 |  erot = 23.74124244101 | edyn = 48.1269934436149 | ebond = 8.23319095453856 | eexcv = 0 | estk = -137.680705324456 | ehbond = -17.9451588157163 | exstk = -20.6436043276209 | ecoaxstk = 0 | edh = 5.66943155336208 | epot = -162.366845959892 | etot = -114.239852516277
2800  ekin = 24.7338169854714 |  erot = 22.0892528144356 | edyn = 46.823069799907 | ebond = 8.44026402462681 | eexcv = 0 | estk = -137.958593819116 | ehbond = -19.2673736326613 | exstk = -19.8451279210927 | ecoaxstk = 0 | edh = 5.6786326315099 | epot = -162.952198716734 | etot = -116.129128916827
2900  ekin = 21.6628643327308 |  erot = 22.3145364925173 | edyn = 43.977400825248 | ebond = 8.19971568556098 | eexcv = 0.0541868768715394 | estk = -137.810019810052 | ehbond = -18.3791614118391 | exstk = -19.5690400132966 | ecoaxstk = 0 | edh = 5.67796593140547 | epot = -161.82635274135 | etot = -117.848951916102
3000  ekin = 22.5476528506977 |  erot = 20.7307046150703 | edyn = 43.278357465768 | ebond = 8.4572364929319 | eexcv = 0 | estk = -143.691751985197 | ehbond = -20.9120305350737 | exstk = -18.7743803012332 | ecoaxstk = 0 | edh = 5.61307372191777 | epot = -169.307852606654 | etot = -126.029495140886
3100  ekin = 23.376205684533 |  erot = 23.0769008295119 | edyn = 46.4531065140448 | ebond = 8.64677413276695 | eexcv = 0 | estk = -142.175699041901 | ehbond = -24.2971476704019 | exstk = -20.0110259107263 | ecoaxstk = 0 | edh = 5.60387977470592 | epot = -172.233218715557 | etot = -125.780112201512
3200  ekin = 23.9527256133417 |  erot = 21.5411199550514 | edyn = 45.4938455683931 | ebond = 7.15935492424829 | eexcv = 0 | estk = -139.907837889555 | ehbond = -25.4041775684562 | exstk = -21.505870895539 | ecoaxstk = 0 | edh = 5.49657250637166 | epot = -174.16195892293 | etot = -128.668113354537
3300  ekin = 21.6512079967847 |  erot = 22.2818619904603 | edyn = 43.933069987245 | ebond = 7.38244026337395 | eexcv = 0.00305962172845045 | estk = -139.693626220136 | ehbond = -27.6220203443711 | exstk = -21.9032896093521 | ecoaxstk = 0 | edh = 5.44057398315815 | epot = -176.392862305598 | etot = -132.459792318353
3400  ekin = 20.4602379931445 |  erot = 22.5443562341334 | edyn = 43.0045942272779 | ebond = 7.13322762628511 | eexcv = 0.0228372124989613 | estk = -140.475887261483 | ehbond = -29.3333131988981 | exstk = -21.231870642312 | ecoaxstk = 0 | edh = 5.52519294865446 | epot = -178.359813315255 | etot = -135.355219087977
3500  ekin = 23.5767389382327 |  erot = 19.3269854474882 | edyn = 42.9037243857209 | ebond = 7.20272965487518 | eexcv = 0.0179226573797057 | estk = -140.679133744804 | ehbond = -30.6426530889223 | exstk = -20.8816298070478 | ecoaxstk = 0 | edh = 5.54269129797725 | epot = -179.440073030542 | etot = -136.536348644821
3600  ekin = 20.5581323026675 |  erot = 20.6716296217058 | edyn = 41.2297619243733 | ebond = 6.91767308948084 | eexcv = 0 | estk = -142.954014469285 | ehbond = -26.8556770153575 | exstk = -20.9080294350471 | ecoaxstk = 0 | edh = 5.56576457644544 | epot = -178.234283253763 | etot = -137.00452132939
3700  ekin = 22.3181944144094 |  erot = 23.1209285431804 | edyn = 45.4391229575899 | ebond = 7.06844809460512 | eexcv = 0.0757680482968024 | estk = -137.270055677762 | ehbond = -31.2711169244284 | exstk = -22.0804215617179 | ecoaxstk = 0 | edh = 5.42501818993424 | epot = -178.052359831072 | etot = -132.613236873482
3800  ekin = 21.2770380438441 |  erot = 24.1539565275091 | edyn = 45.4309945713532 | ebond = 9.50409726685468 | eexcv = 0 | estk = -138.763465756297 | ehbond = -30.7264258661575 | exstk = -21.3235998481093 | ecoaxstk = 0 | edh = 5.44237776760025 | epot = -175.867016436109 | etot = -130.436021864756
3900  ekin = 21.2068673262202 |  erot = 23.0746143621894 | edyn = 44.2814816884096 | ebond = 6.50318234674179 | eexcv = 0.0580829602692819 | estk = -138.005007268668 | ehbond = -31.1408407395771 | exstk = -20.3430265422208 | ecoaxstk = 0 | edh = 5.40130054713737 | epot = -177.526308696317 | etot = -133.244827007908
4000  ekin = 22.8899610138085 |  erot = 20.0964152406977 | edyn = 42.9863762545062 | ebond = 6.91107249501994 | eexcv = 0 | estk = -143.44589418012 | ehbond = -28.5973956056727 | exstk = -22.2904437668927 | ecoaxstk = 0 | edh = 5.35998950396667 | epot = -182.062671553699 | etot = -139.076295299193
4100  ekin = 22.0008663293593 |  erot = 24.2043281417823 | edyn = 46.2051944711416 | ebond = 6.69843882325577 | eexcv = 0 | estk = -142.385793956049 | ehbond = -30.3176287423316 | exstk = -21.1874445746491 | ecoaxstk = 0 | edh = 5.41431167869724 | epot = -181.778116771076 | etot = -135.572922299935
4200  ekin = 23.2387268005514 |  erot = 21.7317890397323 | edyn = 44.9705158402837 | ebond = 5.91811819306495 | eexcv = 0.00469579903858341 | estk = -141.282746855824 | ehbond = -28.7684087138388 | exstk = -21.0062727232774 | ecoaxstk = 0 | edh = 5.42444677132439 | epot = -179.710167529512 | etot = -134.739651689229
4300  ekin = 23.2090540428992 |  erot = 22.9487098227436 | edyn = 46.1577638656428 | ebond = 6.67654883936579 | eexcv = 0 | estk = -141.531442354049 | ehbond = -31.3999751772646 | exstk = -21.6662800099711 | ecoaxstk = 0 | edh = 5.44059925474233 | epot = -182.480549447176 | etot = -136.322785581534
4400  ekin = 22.1875566688885 |  erot = 23.4882638388449 | edyn = 45.6758205077333 | ebond = 8.15668184850355 | eexcv = 0 | estk = -141.209880102679 | ehbond = -33.4001734533 | exstk = -21.3119437423637 | ecoaxstk = 0 | edh = 5.53348060079212 | epot = -182.231834849047 | etot = -136.556014341314
4500  ekin = 22.1933969408733 |  erot = 21.7195154029695 | edyn = 43.9129123438428 | ebond = 7.45529558012869 | eexcv = 0 | estk = -138.511688229932 | ehbond = -30.9472110625126 | exstk = -22.0897911480067 | ecoaxstk = 0 | edh = 5.54547838988862 | epot = -178.547916470434 | etot = -134.635004126591
4600  ekin = 22.0194820229082 |  erot = 20.4984739423978 | edyn = 42.517955965306 | ebond = 6.66835934267269 | eexcv = 0 | estk = -142.138140947289 | ehbond = -31.3657523386498 | exstk = -21.3812738508522 | ecoaxstk = 0 | edh = 5.47169953981245 | epot = -182.745108254306 | etot = -140.227152289
4700  ekin = 22.1682894227374 |  erot = 21.5624091285077 | edyn = 43.7306985512451 | ebond = 6.7530364316395 | eexcv = 0.298823530050145 | estk = -143.053529650801 | ehbond = -31.1738796272456 | exstk = -19.9584091142663 | ecoaxstk = 0 | edh = 5.45597613884516 | epot = -181.677982291778 | etot = -137.947283740533
4800  ekin = 23.6129117919679 |  erot = 22.9283504030064 | edyn = 46.5412621949743 | ebond = 7.15329683499404 | eexcv = 0 | estk = -141.409966080652 | ehbond = -32.6822668432153 | exstk = -22.1895825086545 | ecoaxstk = 0 | edh = 5.45316409267193 | epot = -183.675354504856 | etot = -137.134092309881
4900  ekin = 24.6468836561351 |  erot = 21.8054263135617 | edyn = 46.4523099696968 | ebond = 5.69004990968992 | eexcv = 0 | estk = -140.164452000408 | ehbond = -35.0337720081121 | exstk = -22.2859874752398 | ecoaxstk = 0 | edh = 5.41035728725846 | epot = -186.383804286812 | etot = -139.931494317115
5000  ekin = 22.5613276322706 |  erot = 22.5863729407179 | edyn = 45.1477005729885 | ebond = 6.53036154509434 | eexcv = 0 | estk = -140.92508499153 | ehbond = -33.1202609263091 | exstk = -21.2352623782057 | ecoaxstk = 0 | edh = 5.4374433265211 | epot = -183.312803424429 | etot = -138.165102851441
5100  ekin = 24.4877429755981 |  erot = 21.685760511641 | edyn = 46.1735034872391 | ebond = 6.77668510503248 | eexcv = 0.0119017644040637 | estk = -140.455765217874 | ehbond = -32.161774672624 | exstk = -22.0461994080517 | ecoaxstk = 0 | edh = 5.51611006698772 | epot = -182.359042362126 | etot = -136.185538874886
5200  ekin = 23.2852636893912 |  erot = 20.537594542064 | edyn = 43.8228582314551 | ebond = 6.17965577671124 | eexcv = 0 | estk = -141.0889588509 | ehbond = -34.8429801458206 | exstk = -21.6546984785417 | ecoaxstk = 0 | edh = 5.39276330546781 | epot = -186.014218393083 | etot = -142.191360161628
5300  ekin = 21.8513124544502 |  erot = 22.814286650617 | edyn = 44.6655991050672 | ebond = 7.77686180935104 | eexcv = 0 | estk = -139.368326995521 | ehbond = -36.4175708143295 | exstk = -21.426064452367 | ecoaxstk = 0 | edh = 5.43829790242984 | epot = -183.996802550436 | etot = -139.331203445369
5400  ekin = 22.9729476368875 |  erot = 23.1592283758556 | edyn = 46.1321760127431 | ebond = 5.61225374758433 | eexcv = 0 | estk = -141.071555911994 | ehbond = -34.0816174653505 | exstk = -22.2218517645055 | ecoaxstk = 0 | edh = 5.3320338642479 | epot = -186.430737530018 | etot = -140.298561517275
5500  ekin = 24.6896634246836 |  erot = 21.2774292467966 | edyn = 45.9670926714801 | ebond = 7.63870855973476 | eexcv = 0.0205069817757969 | estk = -140.940828690235 | ehbond = -35.6090262056349 | exstk = -22.2034164961973 | ecoaxstk = 0 | edh = 5.30280775118392 | epot = -185.791248099373 | etot = -139.824155427893
5600  ekin = 25.9157687691752 |  erot = 20.6644034851968 | edyn = 46.5801722543719 | ebond = 6.2298722864985 | eexcv = 0 | estk = -140.927484082173 | ehbond = -35.7705253071329 | exstk = -22.2592320006899 | ecoaxstk = 0 | edh = 5.21030787909737 | epot = -187.5170612244 | etot = -140.936888970028
5700  ekin = 22.7861300859985 |  erot = 22.1172206384841 | edyn = 44.9033507244826 | ebond = 7.64459907925854 | eexcv = 0.0165514134314752 | estk = -142.435611940584 | ehbond = -33.8320602145497 | exstk = -23.9807623512799 | ecoaxstk = 0 | edh = 5.18515280486651 | epot = -187.402131208857 | etot = -142.498780484374
5800  ekin = 24.1494770291818 |  erot = 22.6957572281471 | edyn = 46.8452342573289 | ebond = 6.53591497043724 | eexcv = 0 | estk = -143.133417479665 | ehbond = -34.8172102393921 | exstk = -23.4282612013185 | ecoaxstk = 0 | edh = 5.25743100575758 | epot = -189.58554294418 | etot = -142.740308686851
5900  ekin = 21.5112411690828 |  erot = 23.0316864741502 | edyn = 44.542927643233 | ebond = 6.51512284727066 | eexcv = 0 | estk = -138.779206763359 | ehbond = -36.1848979639691 | exstk = -25.1611772403856 | ecoaxstk = 0 | edh = 5.24630316955025 | epot = -188.363855950892 | etot = -143.820928307659
6000  ekin = 21.0468879137177 |  erot = 21.5811131686596 | edyn = 42.6280010823773 | ebond = 6.30753589050985 | eexcv = 0 | estk = -139.236651116475 | ehbond = -37.1185624448494 | exstk = -24.0534905291593 | ecoaxstk = 0 | edh = 5.17022645353617 | epot = -188.930941746437 | etot = -146.30294066406
6100  ekin = 22.7292725836671 |  erot = 22.4610531383511 | edyn = 45.1903257220181 | ebond = 6.72911221751439 | eexcv = 0 | estk = -141.413146558952 | ehbond = -39.0455699417666 | exstk = -24.4540382381702 | ecoaxstk = 0 | edh = 5.21729572415464 | epot = -192.96634679722 | etot = -147.776021075202
6200  ekin = 20.9536545503806 |  erot = 21.7675719177887 | edyn = 42.7212264681693 | ebond = 6.69512872056043 | eexcv = 0 | estk = -142.334265976052 | ehbond = -37.3082384384929 | exstk = -24.5333833982399 | ecoaxstk = 0 | edh = 5.25640464401542 | epot = -192.224354448209 | etot = -149.50312798004
6300  ekin = 21.6702945483667 |  erot = 18.6787642978884 | edyn = 40.3490588462551 | ebond = 7.59915620616575 | eexcv = 0 | estk = -141.573921451836 | ehbond = -37.4154553827474 | exstk = -25.1752879070256 | ecoaxstk = 0 | edh = 5.25984877643679 | epot = -191.305659759007 | etot = -150.956600912751
6400  ekin = 21.6624365502931 |  erot = 24.0394116302955 | edyn = 45.7018481805885 | ebond = 6.70331436801272 | eexcv = 0 | estk = -140.754417230706 | ehbond = -37.0652043588836 | exstk = -24.5455671441364 | ecoaxstk = 0 | edh = 5.32863685257373 | epot = -190.333237513139 | etot = -144.631389332551
6500  ekin = 21.865884169927 |  erot = 21.3791085455464 | edyn = 43.2449927154733 | ebond = 7.05259944917527 | eexcv = 0 | estk = -139.906219757582 | ehbond = -37.5946483421913 | exstk = -23.6667485389174 | ecoaxstk = 0 | edh = 5.33997309217065 | epot = -188.775044097345 | etot = -145.530051381871
6600  ekin = 23.4184301455245 |  erot = 22.3065307204064 | edyn = 45.7249608659309 | ebond = 8.59506955421281 | eexcv = 0.000569687838316653 | estk = -143.347204129048 | ehbond = -38.1508040437977 | exstk = -22.202864333395 | ecoaxstk = 0 | edh = 5.34624768625302 | epot = -189.758985577936 | etot = -144.034024712006
6700  ekin = 19.4190430090726 |  erot = 21.1486637523729 | edyn = 40.5677067614455 | ebond = 5.69585551108275 | eexcv = 0 | estk = -143.549800739528 | ehbond = -37.4399266028839 | exstk = -21.1693469185488 | ecoaxstk = 0 | edh = 5.36852701555034 | epot = -191.094691734328 | etot = -150.526984972882
6800  ekin = 22.3224784370441 |  erot = 21.1288365746242 | edyn = 43.4513150116683 | ebond = 7.27469874112161 | eexcv = 0 | estk = -142.84061010629 | ehbond = -36.8460879840833 | exstk = -23.1699079077379 | ecoaxstk = 0 | edh = 5.27701850577697 | epot = -190.304888751213 | etot = -146.853573739545
6900  ekin = 22.8087220320563 |  erot = 22.0655705613666 | edyn = 44.8742925934229 | ebond = 5.96586571006824 | eexcv = 0.245460549952544 | estk = -140.836844087713 | ehbond = -37.2506640037883 | exstk = -22.3034663828279 | ecoaxstk = 0 | edh = 5.30109007862409 | epot = -188.878558135685 | etot = -144.004265542262
7000  ekin = 23.4925695279621 |  erot = 24.5235113951522 | edyn = 48.0160809231143 | ebond = 5.85105460430205 | eexcv = 0 | estk = -141.326569624585 | ehbond = -37.7180647129957 | exstk = -23.12293258096 | ecoaxstk = 0 | edh = 5.27086316888591 | epot = -191.045649145353 | etot = -143.029568222239
7100  ekin = 20.936939754008 |  erot = 23.5195541763806 | edyn = 44.4564939303886 | ebond = 7.2124962062395 | eexcv = 0 | estk = -137.975901135059 | ehbond = -38.047894745034 | exstk = -23.2196102204908 | ecoaxstk = 0 | edh = 5.26704229530847 | epot = -186.763867599036 | etot = -142.307373668647
7200  ekin = 24.3090399414049 |  erot = 20.6007253883825 | edyn = 44.9097653297875 | ebond = 6.85689686297159 | eexcv = 0 | estk = -140.608139202634 | ehbond = -35.2196301157774 | exstk = -25.0530778484034 | ecoaxstk = 0 | edh = 5.21840112666559 | epot = -188.805549177177 | etot = -143.89578384739
7300  ekin = 23.0962327648238 |  erot = 20.6195660434295 | edyn = 43.7157988082532 | ebond = 6.80204160247345 | eexcv = 0 | estk = -141.874898592269 | ehbond = -37.1902491016391 | exstk = -24.4231643759132 | ecoaxstk = 0 | edh = 5.21286693998427 | epot = -191.473403527364 | etot = -147.757604719111
7400  ekin = 20.8236157557848 |  erot = 21.3039890030835 | edyn = 42.1276047588683 | ebond = 7.09423359095156 | eexcv = 0.0633877621293129 | estk = -141.154703124535 | ehbond = -38.3891680967781 | exstk = -24.5964752996268 | ecoaxstk = 0 | edh = 5.2754122185045 | epot = -191.707312949355 | etot = -149.579708190486
7500  ekin = 21.4084978554254 |  erot = 22.557763544674 | edyn = 43.9662614000994 | ebond = 6.01807065726004 | eexcv = 0 | estk = -143.740750667935 | ehbond = -35.9073312696043 | exstk = -24.3379950393266 | ecoaxstk = 0 | edh = 5.27101860273229 | epot = -192.696987716874 | etot = -148.730726316774
7600  ekin = 22.5226320233724 |  erot = 22.6662506145741 | edyn = 45.1888826379466 | ebond = 6.55223410982211 | eexcv = 0 | estk = -140.863088112923 | ehbond = -38.2219402434999 | exstk = -23.3013116671281 | ecoaxstk = 0 | edh = 5.20760530460905 | epot = -190.62650060912 | etot = -145.437617971173
7700  ekin = 22.9874355481665 |  erot = 20.4808160676146 | edyn = 43.4682516157811 | ebond = 6.83751510280953 | eexcv = 0 | estk = -140.097107473922 | ehbond = -39.9288471633154 | exstk = -23.5438665083681 | ecoaxstk = 0 | edh = 5.20785118929088 | epot = -191.524454853505 | etot = -148.056203237724
7800  ekin = 23.8958357466937 |  erot = 22.015705286928 | edyn = 45.9115410336217 | ebond = 7.1952140540992 | eexcv = 0 | estk = -140.842946215037 | ehbond = -38.5684240462402 | exstk = -24.2106839208598 | ecoaxstk = 0 | edh = 5.24014805051059 | epot = -191.186692077528 | etot = -145.275151043906
7900  ekin = 21.3619557495275 |  erot = 21.2171326426193 | edyn = 42.5790883921468 | ebond = 8.1908890924924 | eexcv = 0 | estk = -139.233628158742 | ehbond = -38.1382707479763 | exstk = -23.91208040067 | ecoaxstk = 0 | edh = 5.2269184954261 | epot = -187.86617171947 | etot = -145.287083327323
8000  ekin = 22.5485151717966 |  erot = 22.8333335621226 | edyn = 45.3818487339193 | ebond = 7.25310944433832 | eexcv = 0 | estk = -138.629208310488 | ehbond = -37.4290852239755 | exstk = -24.3333047845238 | ecoaxstk = 0 | edh = 5.16387174916589 | epot = -187.974617125483 | etot = -142.592768391564
8100  ekin = 20.8844615942605 |  erot = 23.6849171564709 | edyn = 44.5693787507314 | ebond = 6.99258870845769 | eexcv = 0.0449394834738616 | estk = -141.682972861169 | ehbond = -36.400856184168 | exstk = -24.5600727032337 | ecoaxstk = 0 | edh = 5.22818587182703 | epot = -190.378187684812 | etot = -145.808808934081
8200  ekin = 21.9508633312979 |  erot = 23.9759386947141 | edyn = 45.9268020260119 | ebond = 8.28758868753524 | eexcv = 0 | estk = -139.851161568206 | ehbond = -36.2181182026263 | exstk = -23.9151233493964 | ecoaxstk = 0 | edh = 5.26418457714332 | epot = -186.43262985555 | etot = -140.505827829538
8300  ekin = 21.854918470035 |  erot = 22.4179213153913 | edyn = 44.2728397854263 | ebond = 6.80612464614496 | eexcv = 0 | estk = -140.400733454682 | ehbond = -35.7408095914453 | exstk = -23.8899987499124 | ecoaxstk = 0 | edh = 5.15157880736887 | epot = -188.073838342526 | etot = -143.800998557099
8400  ekin = 23.7604291625187 |  erot = 21.4244551714937 | edyn = 45.1848843340123 | ebond = 6.24768377510693 | eexcv = 0 | estk = -137.655168837265 | ehbond = -39.316479813232 | exstk = -22.1330792841294 | ecoaxstk = 0 | edh = 5.20107286771618 | epot = -187.655971291803 | etot = -142.471086957791
8500  ekin = 21.5855296140517 |  erot = 24.3156383148754 | edyn = 45.9011679289271 | ebond = 6.5434778318526 | eexcv = 0.0623777240108149 | estk = -141.735092143688 | ehbond = -34.2060888106208 | exstk = -24.2814461354979 | ecoaxstk = 0 | edh = 5.19102968268381 | epot = -188.425741851259 | etot = -142.524573922332
8600  ekin = 22.8993078748586 |  erot = 20.1988334767596 | edyn = 43.0981413516182 | ebond = 7.99824695061077 | eexcv = 0 | estk = -140.32877141394 | ehbond = -38.6279825042868 | exstk = -24.6656167593583 | ecoaxstk = 0 | edh = 5.10805103232237 | epot = -190.516072694652 | etot = -147.417931343034
8700  ekin = 23.3478238798921 |  erot = 22.6156246719977 | edyn = 45.9634485518898 | ebond = 6.98309486791559 | eexcv = 0 | estk = -139.54348723628 | ehbond = -40.9027380362092 | exstk = -25.338703918956 | ecoaxstk = 0 | edh = 5.11782331398915 | epot = -193.68401100954 | etot = -147.720562457651
8800  ekin = 21.473457293561 |  erot = 21.1800921174646 | edyn = 42.6535494110256 | ebond = 6.79925227274677 | eexcv = 0.34237388170363 | estk = -138.612399201886 | ehbond = -39.302188642242 | exstk = -24.5929289306943 | ecoaxstk = 0 | edh = 5.18482015984073 | epot = -190.181070460531 | etot = -147.527521049506
8900  ekin = 22.8266010480031 |  erot = 19.8305070920791 | edyn = 42.6571081400822 | ebond = 6.5210187351125 | eexcv = 0.00362497678471259 | estk = -137.204868093481 | ehbond = -39.3665226147952 | exstk = -23.3627039535324 | ecoaxstk = 0 | edh = 5.26194606051072 | epot = -188.147504889401 | etot = -145.490396749319
9000  ekin = 21.8242772102323 |  erot = 23.7600256603298 | edyn = 45.5843028705621 | ebond = 6.38421349493832 | eexcv = 0.195003352227401 | estk = -140.709340338885 | ehbond = -39.3630108322854 | exstk = -24.2740911016977 | ecoaxstk = 0 | edh = 5.2656156586336 | epot = -192.501609767069 | etot = -146.917306896507
9100  ekin = 23.9771542422359 |  erot = 21.367069594366 | edyn = 45.3442238366019 | ebond = 6.30111076266353 | eexcv = 0.0143896712380654 | estk = -141.316174983657 | ehbond = -39.0826408710286 | exstk = -24.794885820142 | ecoaxstk = 0 | edh = 5.22880042980777 | epot = -193.649400811118 | etot = -148.305176974516
9200  ekin = 23.0638479336871 |  erot = 20.9957384803201 | edyn = 44.0595864140072 | ebond = 7.08275533184009 | eexcv = 0 | estk = -142.069968613013 | ehbond = -37.8749956226285 | exstk = -25.1824945373905 | ecoaxstk = 0 | edh = 5.30100738751359 | epot = -192.743696053678 | etot = -148.684109639671
9300  ekin = 22.1982799659491 |  erot = 22.5548259392306 | edyn = 44.7531059051796 | ebond = 7.46120724085242 | eexcv = 0 | estk = -142.052029927054 | ehbond = -37.4942322468162 | exstk = -22.8843295180267 | ecoaxstk = 0 | edh = 5.39208493458723 | epot = -189.577299516457 | etot = -144.824193611277
9400  ekin = 21.1495302902728 |  erot = 23.1014510949122 | edyn = 44.250981385185 | ebond = 7.21506856200943 | eexcv = 0 | estk = -142.603549263284 | ehbond = -37.8371417993099 | exstk = -23.1955097598135 | ecoaxstk = 0 | edh = 5.40739937900118 | epot = -191.013732881397 | etot = -146.762751496212
9500  ekin = 23.5188973382845 |  erot = 23.089637732675 | edyn = 46.6085350709595 | ebond = 5.37204286106265 | eexcv = 0 | estk = -139.274410415241 | ehbond = -37.4022473025587 | exstk = -22.7756139094318 | ecoaxstk = 0 | edh = 5.3186020525746 | epot = -188.761626713595 | etot = -142.153091642635
9600  ekin = 21.392574802087 |  erot = 22.4180869467938 | edyn = 43.8106617488808 | ebond = 6.85842535050997 | eexcv = 0 | estk = -141.44282758548 | ehbond = -36.7987459163951 | exstk = -22.2659360278426 | ecoaxstk = 0 | edh = 5.32111844438432 | epot = -188.327965734824 | etot = -144.517303985943
9700  ekin = 24.1692205300336 |  erot = 21.7398542844133 | edyn = 45.9090748144469 | ebond = 6.40499591391527 | eexcv = 0 | estk = -144.38543643829 | ehbond = -39.3392009959524 | exstk = -22.3844361477342 | ecoaxstk = 0 | edh = 5.24165041442364 | epot = -194.462427253638 | etot = -148.553352439191
9800  ekin = 23.2853561877484 |  erot = 22.6013802869275 | edyn = 45.8867364746759 | ebond = 5.91303641415982 | eexcv = 0 | estk = -140.699125945439 | ehbond = -39.4440604394759 | exstk = -23.8730267080738 | ecoaxstk = 0 | edh = 5.20935419079083 | epot = -192.893822488038 | etot = -147.007086013362
9900  ekin = 20.467569721273 |  erot = 23.7981434386086 | edyn = 44.2657131598816 | ebond = 6.36504121612507 | eexcv = 0 | estk = -140.46726518798 | ehbond = -36.0183216633376 | exstk = -24.3565954981266 | ecoaxstk = 0 | edh = 5.26438510557411 | epot = -189.212756027745 | etot = -144.947042867864
10000  ekin = 18.3554337595746 |  erot = 20.9759446286253 | edyn = 39.3313783881999 | ebond = 7.39707617706282 | eexcv = 0.000852395391617333 | estk = -141.392402383983 | ehbond = -35.5960474437042 | exstk = -21.8867490008989 | ecoaxstk = 0 | edh = 5.35153909232271 | epot = -186.125731163809 | etot = -146.794352775609
10100  ekin = 21.0248479298036 |  erot = 23.8632972126388 | edyn = 44.8881451424424 | ebond = 6.84900090977095 | eexcv = 0 | estk = -142.274894532116 | ehbond = -38.8042627248662 | exstk = -24.6697370418671 | ecoaxstk = 0 | edh = 5.37711728281516 | epot = -193.522776106264 | etot = -148.634630963821
10200  ekin = 21.6000625973491 |  erot = 18.1759992030174 | edyn = 39.7760618003665 | ebond = 5.14548965972474 | eexcv = 0.0953199402089814 | estk = -142.64810189173 | ehbond = -39.999829629519 | exstk = -23.8191671133865 | ecoaxstk = 0 | edh = 5.39654395300743 | epot = -195.829745081695 | etot = -156.053683281328
10300  ekin = 20.8967055652305 |  erot = 21.3083858374831 | edyn = 42.2050914027136 | ebond = 6.52298599352156 | eexcv = 0 | estk = -144.022777832478 | ehbond = -36.4390978753101 | exstk = -23.0373116943203 | ecoaxstk = 0 | edh = 5.38377977090153 | epot = -191.592421637685 | etot = -149.387330234971
10400  ekin = 20.095244225812 |  erot = 23.1404744424596 | edyn = 43.2357186682716 | ebond = 6.86077878071768 | eexcv = 0 | estk = -141.504824825458 | ehbond = -38.8383959480106 | exstk = -24.4544871840171 | ecoaxstk = 0 | edh = 5.34624454177813 | epot = -192.59068463499 | etot = -149.354965966718
10500  ekin = 25.1071726582622 |  erot = 22.4699517870413 | edyn = 47.5771244453035 | ebond = 6.48024960174008 | eexcv = 0 | estk = -140.982138303914 | ehbond = -39.5634967633472 | exstk = -24.8341781687225 | ecoaxstk = 0 | edh = 5.37978543675509 | epot = -193.519778197489 | etot = -145.942653752185
10600  ekin = 22.0677479880612 |  erot = 22.6424714527926 | edyn = 44.7102194408537 | ebond = 6.63721876060787 | eexcv = 0 | estk = -140.637021099659 | ehbond = -36.6079517753107 | exstk = -24.0334099768951 | ecoaxstk = 0 | edh = 5.34804469819889 | epot = -189.293119393058 | etot = -144.582899952205
10700  ekin = 24.3923020746557 |  erot = 23.7676552023479 | edyn = 48.1599572770037 | ebond = 7.41539191551367 | eexcv = 0.00479064774694671 | estk = -141.695997342176 | ehbond = -39.6116243340797 | exstk = -22.4305317193709 | ecoaxstk = 0 | edh = 5.41920588544859 | epot = -190.898764946917 | etot = -142.738807669914
10800  ekin = 23.0189088575345 |  erot = 22.7752171017131 | edyn = 45.7941259592476 | ebond = 7.02968888089934 | eexcv = 0 | estk = -142.55680386301 | ehbond = -40.802849587812 | exstk = -23.2872992079626 | ecoaxstk = 0 | edh = 5.46293856011984 | epot = -194.154325217766 | etot = -148.360199258518
10900  ekin = 21.5500656505551 |  erot = 21.0959261491719 | edyn = 42.6459917997271 | ebond = 6.45502026971413 | eexcv = 0.0403651255411259 | estk = -142.386351745811 | ehbond = -39.2576474375567 | exstk = -24.5077019179561 | ecoaxstk = 0 | edh = 5.37600817682329 | epot = -194.280307529245 | etot = -151.634315729518
11000  ekin = 22.2593853938439 |  erot = 20.5170511667267 | edyn = 42.7764365605706 | ebond = 7.59131546533289 | eexcv = 0.0223560899092464 | estk = -142.790641811976 | ehbond = -38.4755931722571 | exstk = -24.8413511367766 | ecoaxstk = 0 | edh = 5.35190849048591 | epot = -193.142006075282 | etot = -150.365569514711
11100  ekin = 20.2504447683191 |  erot = 21.6337573183684 | edyn = 41.8842020866875 | ebond = 7.20997629202033 | eexcv = 0.000602136567632738 | estk = -140.24612913374 | ehbond = -39.4017419694009 | exstk = -24.5914665859411 | ecoaxstk = 0 | edh = 5.3055534207854 | epot = -191.723205839708 | etot = -149.839003753021
11200  ekin = 23.9965080441078 |  erot = 22.5874824212341 | edyn = 46.5839904653419 | ebond = 6.60724739520973 | eexcv = 0 | estk = -139.438683652704 | ehbond = -41.5837855974322 | exstk = -24.661715988429 | ecoaxstk = 0 | edh = 5.22659797103588 | epot = -193.85033987232 | etot = -147.266349406978
11300  ekin = 22.6915077692606 |  erot = 24.2552822391401 | edyn = 46.9467900084007 | ebond = 8.06693227658965 | eexcv = 0 | estk = -138.812906878035 | ehbond = -38.1017602576365 | exstk = -23.8999928489789 | ecoaxstk = 0 | edh = 5.25106522562951 | epot = -187.496662482431 | etot = -140.549872474031
11400  ekin = 24.0472265976058 |  erot = 23.6126715990765 | edyn = 47.6598981966823 | ebond = 7.44437820709276 | eexcv = 0.0650487777260625 | estk = -141.440657049201 | ehbond = -38.7861736032648 | exstk = -24.3264397673691 | ecoaxstk = 0 | edh = 5.27432587389856 | epot = -191.769517561117 | etot = -144.109619364435
11500  ekin = 22.37123720884 |  erot = 22.511852415493 | edyn = 44.883089624333 | ebond = 7.19880016042765 | eexcv = 0 | estk = -140.49154627846 | ehbond = -39.4538088753786 | exstk = -25.1020490397153 | ecoaxstk = 0 | edh = 5.20387462209212 | epot = -192.644729411034 | etot = -147.761639786701
11600  ekin = 22.7065256765194 |  erot = 19.7383149944675 | edyn = 42.4448406709869 | ebond = 7.00601672294968 | eexcv = 0 | estk = -138.827562990728 | ehbond = -37.7683216041217 | exstk = -23.0692231582189 | ecoaxstk = 0 | edh = 5.25344069870967 | epot = -187.405650331409 | etot = -144.960809660422
11700  ekin = 22.021968675514 |  erot = 23.5908852163 | edyn = 45.612853891814 | ebond = 6.10911155276359 | eexcv = 0 | estk = -141.725144080605 | ehbond = -38.7148663146792 | exstk = -23.6975719158049 | ecoaxstk = 0 | edh = 5.27257833455433 | epot = -192.755892423771 | etot = -147.143038531957
11800  ekin = 23.1197488242732 |  erot = 24.0265155807257 | edyn = 47.1462644049989 | ebond = 6.92640402580085 | eexcv = 0 | estk = -142.132229677414 | ehbond = -38.8707742770495 | exstk = -24.2041617372276 | ecoaxstk = 0 | edh = 5.26672492722696 | epot = -193.014036738663 | etot = -145.867772333664
11900  ekin = 21.5450871328302 |  erot = 23.5361238918905 | edyn = 45.0812110247208 | ebond = 6.24734936580622 | eexcv = 0.0310400769219152 | estk = -139.515666083046 | ehbond = -40.4484953107723 | exstk = -24.1938933130258 | ecoaxstk = 0 | edh = 5.28537617740962 | epot = -192.594289086706 | etot = -147.513078061985
12000  ekin = 21.255220857276 |  erot = 23.8023563676079 | edyn = 45.0575772248838 | ebond = 7.06523681331482 | eexcv = 0.0452009842034799 | estk = -137.157984068703 | ehbond = -40.4946198713353 | exstk = -25.6760504254378 | ecoaxstk = 0 | edh = 5.2717361565848 | epot = -190.946480411373 | etot = -145.888903186489
12100  ekin = 20.106433486696 |  erot = 22.8478017878533 | edyn = 42.9542352745492 | ebond = 7.4158687464644 | eexcv = 0 | estk = -139.966568191579 | ehbond = -40.4145413997818 | exstk = -25.3623608200404 | ecoaxstk = 0 | edh = 5.27399620674524 | epot = -193.053605458191 | etot = -150.099370183642
12200  ekin = 23.8594668325792 |  erot = 21.6896300687672 | edyn = 45.5490969013464 | ebond = 6.32041077949038 | eexcv = 0 | estk = -139.527418528508 | ehbond = -42.6803305180221 | exstk = -25.0663799513132 | ecoaxstk = 0 | edh = 5.21434887199426 | epot = -195.739369346359 | etot = -150.190272445013
12300  ekin = 20.1866373408855 |  erot = 23.1604285508345 | edyn = 43.34706589172 | ebond = 7.22484791747098 | eexcv = 0 | estk = -139.134625362435 | ehbond = -38.3362799383872 | exstk = -25.1893301902325 | ecoaxstk = 0 | edh = 5.15769012025065 | epot = -190.277697453333 | etot = -146.930631561613
12400  ekin = 21.9164823934271 |  erot = 19.7602634287032 | edyn = 41.6767458221303 | ebond = 6.25795781365594 | eexcv = 0 | estk = -137.20783332765 | ehbond = -39.8545364239462 | exstk = -24.0052803100671 | ecoaxstk = 0 | edh = 5.16100342713506 | epot = -189.648688820873 | etot = -147.971942998742
12500  ekin = 22.7490431141688 |  erot = 24.8539898256592 | edyn = 47.603032939828 | ebond = 6.74591447469042 | eexcv = 0 | estk = -138.355005862554 | ehbond = -40.8444964076905 | exstk = -24.6739689838001 | ecoaxstk = 0 | edh = 5.16767588899221 | epot = -191.959880890362 | etot = -144.356847950534
12600  ekin = 23.3263393731004 |  erot = 21.1399327002453 | edyn = 44.4662720733456 | ebond = 8.06260109425006 | eexcv = 0.00571460678350625 | estk = -136.514598757615 | ehbond = -39.8680753758518 | exstk = -24.439794374308 | ecoaxstk = 0 | edh = 5.21849555729089 | epot = -187.53565724945 | etot = -143.069385176105
12700  ekin = 23.5433861375324 |  erot = 22.9213648510884 | edyn = 46.4647509886208 | ebond = 6.61495631669271 | eexcv = 0 | estk = -137.842997530952 | ehbond = -39.6529573208563 | exstk = -24.7587681094811 | ecoaxstk = 0 | edh = 5.17952803765101 | epot = -190.460238606946 | etot = -143.995487618325
12800  ekin = 24.7715232464134 |  erot = 23.7837757817554 | edyn = 48.5552990281688 | ebond = 7.34764927294522 | eexcv = 0.0248721211688266 | estk = -139.917790178989 | ehbond = -39.2773173551052 | exstk = -25.2146821209301 | ecoaxstk = 0 | edh = 5.20584594576359 | epot = -191.831422315146 | etot = -143.276123286977
12900  ekin = 21.8349773062795 |  erot = 25.087098408954 | edyn = 46.9220757152336 | ebond = 7.74667493343996 | eexcv = 0 | estk = -141.607451198622 | ehbond = -39.5828729801066 | exstk = -25.5981145497095 | ecoaxstk = 0 | edh = 5.17725232522839 | epot = -193.864511469769 | etot = -146.942435754536
13000  ekin = 23.4911866156205 |  erot = 21.0698557743918 | edyn = 44.5610423900123 | ebond = 7.10452458980356 | eexcv = 0 | estk = -141.29566922365 | ehbond = -42.679111437467 | exstk = -24.7771179065034 | ecoaxstk = 0 | edh = 5.25523446641289 | epot = -196.392139511403 | etot = -151.831097121391
13100  ekin = 21.5507933913775 |  erot = 22.4988444827086 | edyn = 44.0496378740861 | ebond = 6.1071506095205 | eexcv = 0.0426178318509051 | estk = -141.974562689469 | ehbond = -41.9437871795042 | exstk = -24.7791815755821 | ecoaxstk = 0 | edh = 5.16207956935746 | epot = -197.385683433827 | etot = -153.33604555974
13200  ekin = 22.1151477211831 |  erot = 20.8819204733876 | edyn = 42.9970681945707 | ebond = 6.8917526019048 | eexcv = 0 | estk = -138.717348773849 | ehbond = -41.5920610598359 | exstk = -25.263388159897 | ecoaxstk = 0 | edh = 5.13491490173325 | epot = -193.546130489943 | etot = -150.549062295373
13300  ekin = 21.6330377956104 |  erot = 22.1883861341671 | edyn = 43.8214239297775 | ebond = 8.06261718260493 | eexcv = 0 | estk = -141.93550336893 | ehbond = -40.7494223084248 | exstk = -23.7922212146769 | ecoaxstk = 0 | edh = 5.10896901205337 | epot = -193.305560697373 | etot = -149.484136767596
13400  ekin = 21.9792644037594 |  erot = 23.9082771916924 | edyn = 45.8875415954518 | ebond = 6.8951708811902 | eexcv = 1.44142507881086e-06 | estk = -141.83370398576 | ehbond = -41.0620640819088 | exstk = -24.0655060077113 | ecoaxstk = 0 | edh = 5.2071670876532 | epot = -194.858934665112 | etot = -148.97139306966
13500  ekin = 22.4191346309247 |  erot = 22.1738854144559 | edyn = 44.5930200453806 | ebond = 7.80127021697212 | eexcv = 0.0489252681793812 | estk = -142.939382560656 | ehbond = -38.4086767018605 | exstk = -25.0420811060068 | ecoaxstk = 0 | edh = 5.18055643317992 | epot = -193.359388450192 | etot = -148.766368404812
13600  ekin = 24.1250656993104 |  erot = 22.6207872768131 | edyn = 46.7458529761236 | ebond = 6.11664928883268 | eexcv = 0 | estk = -142.06574288925 | ehbond = -40.9388925486512 | exstk = -24.0315353141189 | ecoaxstk = 0 | edh = 5.12743457773286 | epot = -195.792086885455 | etot = -149.046233909331
13700  ekin = 21.6652928256604 |  erot = 22.4929601659422 | edyn = 44.1582529916025 | ebond = 6.49079945975545 | eexcv = 0 | estk = -141.384931636495 | ehbond = -41.4691036567809 | exstk = -24.6305638877986 | ecoaxstk = 0 | edh = 5.16104251435453 | epot = -195.832757206965 | etot = -151.674504215362
13800  ekin = 21.5312659228514 |  erot = 23.0273424513646 | edyn = 44.558608374216 | ebond = 5.66936138899216 | eexcv = 0 | estk = -142.907691183427 | ehbond = -40.7197827762941 | exstk = -24.487785227784 | ecoaxstk = 0 | edh = 5.17210684196774 | epot = -197.273790956545 | etot = -152.715182582329
13900  ekin = 22.1890802045881 |  erot = 21.1262885973528 | edyn = 43.3153688019409 | ebond = 7.19971555883951 | eexcv = 0 | estk = -139.24984703276 | ehbond = -41.0162317128483 | exstk = -23.9689737164458 | ecoaxstk = 0 | edh = 5.14455330071229 | epot = -191.890783602502 | etot = -148.575414800561
14000  ekin = 22.2328247294215 |  erot = 24.4389760962595 | edyn = 46.671800825681 | ebond = 6.77080171558746 | eexcv = 0.228924717987416 | estk = -139.385859692769 | ehbond = -42.5341144403234 | exstk = -26.6530319692398 | ecoaxstk = 0 | edh = 5.23118885261434 | epot = -196.342090816142 | etot = -149.670289990461
14100  ekin = 21.1477758550088 |  erot = 22.8843167916226 | edyn = 44.0320926466314 | ebond = 5.65654330545636 | eexcv = 0 | estk = -139.429139600877 | ehbond = -41.6344829566546 | exstk = -25.0442380989308 | ecoaxstk = 0 | edh = 5.20884940349937 | epot = -195.242467947507 | etot = -151.210375300875
14200  ekin = 21.463498111264 |  erot = 24.1686377103521 | edyn = 45.6321358216161 | ebond = 8.16420252751708 | eexcv = 0.215387171557148 | estk = -140.381792004036 | ehbond = -41.7651645584637 | exstk = -25.8637857839723 | ecoaxstk = 0 | edh = 5.17781274959439 | epot = -194.453339897803 | etot = -148.821204076187
14300  ekin = 21.8294679007656 |  erot = 22.2560812110483 | edyn = 44.0855491118139 | ebond = 7.19262393754915 | eexcv = 0 | estk = -139.907940361318 | ehbond = -38.4530464506837 | exstk = -25.1478354790044 | ecoaxstk = 0 | edh = 5.18381008115743 | epot = -191.1323882723 | etot = -147.046839160486
14400  ekin = 22.770981643754 |  erot = 21.9841263577812 | edyn = 44.7551080015352 | ebond = 5.90279001250047 | eexcv = 0.0134892468714767 | estk = -137.809120231217 | ehbond = -42.2573560285938 | exstk = -24.0362301964828 | ecoaxstk = 0 | edh = 5.23805234120073 | epot = -192.948374855721 | etot = -148.193266854186
14500  ekin = 24.8392545999783 |  erot = 24.8733535013723 | edyn = 49.7126081013506 | ebond = 5.89715068678038 | eexcv = 0.175227353879012 | estk = -141.845255953965 | ehbond = -40.2747120897891 | exstk = -24.3030619849812 | ecoaxstk = 0 | edh = 5.29030835830414 | epot = -195.060343629772 | etot = -145.347735528421
14600  ekin = 22.2530716743516 |  erot = 25.0877787438886 | edyn = 47.3408504182402 | ebond = 7.2925629067515 | eexcv = 0 | estk = -139.228297766405 | ehbond = -41.3851247519297 | exstk = -24.2069579714252 | ecoaxstk = 0 | edh = 5.2998573584351 | epot = -192.227960224574 | etot = -144.887109806333
14700  ekin = 24.7263506293821 |  erot = 24.846137289695 | edyn = 49.572487919077 | ebond = 6.18088638863087 | eexcv = 0.197047412123926 | estk = -137.96073990024 | ehbond = -41.1750964916752 | exstk = -23.7175896026759 | ecoaxstk = 0 | edh = 5.14517427254375 | epot = -191.330317921293 | etot = -141.757830002216
14800  ekin = 25.3919369554937 |  erot = 23.2230858128525 | edyn = 48.6150227683462 | ebond = 7.02761229892935 | eexcv = 0 | estk = -137.867641163405 | ehbond = -40.0065382406101 | exstk = -25.6974766676794 | ecoaxstk = 0 | edh = 5.01332980382902 | epot = -191.530713968936 | etot = -142.91569120059
14900  ekin = 25.2482916605266 |  erot = 22.3640374668916 | edyn = 47.6123291274182 | ebond = 7.92557100128815 | eexcv = 0 | estk = -140.359160885586 | ehbond = -39.0993406005418 | exstk = -25.2124765743744 | ecoaxstk = 0 | edh = 5.01836277030356 | epot = -191.72704428891 | etot = -144.114715161492
15000  ekin = 22.7567038110094 |  erot = 21.680005943158 | edyn = 44.4367097541674 | ebond = 6.87712650854983 | eexcv = 0 | estk = -140.389685745641 | ehbond = -41.187642803163 | exstk = -26.521862837267 | ecoaxstk = 0 | edh = 4.99136745665226 | epot = -196.230697420869 | etot = -151.793987666701
15100  ekin = 22.2593113702722 |  erot = 21.057809602293 | edyn = 43.3171209725652 | ebond = 7.86861008802423 | eexcv = 0 | estk = -141.644519727867 | ehbond = -40.0310576620499 | exstk = -25.0157956647302 | ecoaxstk = 0 | edh = 5.09107558494042 | epot = -193.731687381682 | etot = -150.414566409117
15200  ekin = 19.8507631597819 |  erot = 20.6874716225047 | edyn = 40.5382347822866 | ebond = 8.06540257383863 | eexcv = 0 | estk = -138.221776327904 | ehbond = -42.1999475155805 | exstk = -24.1608735160099 | ecoaxstk = 0 | edh = 5.110809662453 | epot = -191.406385123203 | etot = -150.868150340916
15300  ekin = 20.0217174491323 |  erot = 22.6565217238376 | edyn = 42.6782391729699 | ebond = 6.48338186017581 | eexcv = 0 | estk = -139.797359002424 | ehbond = -39.8421790351283 | exstk = -23.8450508276789 | ecoaxstk = 0 | edh = 5.15238833228422 | epot = -191.848818672771 | etot = -149.170579499801
15400  ekin = 20.1886681070759 |  erot = 21.3011501079658 | edyn = 41.4898182150417 | ebond = 6.61780451688773 | eexcv = 0 | estk = -141.638258234535 | ehbond = -40.0203897327315 | exstk = -22.7673398101291 | ecoaxstk = 0 | edh = 5.27660319015575 | epot = -192.531580070352 | etot = -151.04176185531
15500  ekin = 21.5032504020841 |  erot = 21.113158965765 | edyn = 42.616409367849 | ebond = 6.61933878863201 | eexcv = 0.0285820168853457 | estk = -138.420804356851 | ehbond = -40.6213301891831 | exstk = -24.2357971142574 | ecoaxstk = 0 | edh = 5.22302414259698 | epot = -191.406986712177 | etot = -148.790577344328
15600  ekin = 22.8570458256637 |  erot = 22.6502165218504 | edyn = 45.5072623475141 | ebond = 4.70372537612209 | eexcv = 0 | estk = -140.46197042924 | ehbond = -38.6229519795955 | exstk = -23.6651018217634 | ecoaxstk = 0 | edh = 5.22706520154549 | epot = -192.819233652931 | etot = -147.311971305417
15700  ekin = 22.2451895796037 |  erot = 24.2842281945874 | edyn = 46.529417774191 | ebond = 6.60214483211388 | eexcv = 0.0226996520419168 | estk = -141.50086784858 | ehbond = -39.8415710822183 | exstk = -24.5254119438246 | ecoaxstk = 0 | edh = 5.24009081274837 | epot = -194.002915577718 | etot = -147.473497803527
15800  ekin = 22.8442611287855 |  erot = 23.0126601528655 | edyn = 45.856921281651 | ebond = 7.50467708750077 | eexcv = 0 | estk = -140.046726222962 | ehbond = -39.6042308477822 | exstk = -23.7512035835433 | ecoaxstk = 0 | edh = 5.21064473150344 | epot = -190.686838835284 | etot = -144.829917553633
15900  ekin = 24.393069376652 |  erot = 23.4245493581565 | edyn = 47.8176187348084 | ebond = 7.80351594707406 | eexcv = 0 | estk = -140.909102711931 | ehbond = -39.5800363082773 | exstk = -25.3086829451851 | ecoaxstk = 0 | edh = 5.16728822906697 | epot = -192.827017789253 | etot = -145.009399054444
16000  ekin = 23.8822396368481 |  erot = 20.9706535540448 | edyn = 44.8528931908929 | ebond = 7.6662071667358 | eexcv = 0 | estk = -137.212735551503 | ehbond = -41.0952763534529 | exstk = -24.2557319417486 | ecoaxstk = 0 | edh = 5.19032241118764 | epot = -189.707214268781 | etot = -144.854321077888
16100  ekin = 21.190825103726 |  erot = 22.0087484303448 | edyn = 43.1995735340708 | ebond = 7.42229838178341 | eexcv = 0 | estk = -138.11468941784 | ehbond = -41.2878441583959 | exstk = -24.9453618587075 | ecoaxstk = 0 | edh = 5.17669639213681 | epot = -191.748900661023 | etot = -148.549327126953
16200  ekin = 20.5566000229919 |  erot = 22.4182374841944 | edyn = 42.9748375071863 | ebond = 7.54959475122475 | eexcv = 0 | estk = -142.219942123837 | ehbond = -39.0260634432715 | exstk = -25.283862137697 | ecoaxstk = 0 | edh = 5.23709054094981 | epot = -193.743182412631 | etot = -150.768344905445
16300  ekin = 23.6310211085612 |  erot = 21.0509027051159 | edyn = 44.6819238136771 | ebond = 5.42333651156887 | eexcv = 0 | estk = -140.814159757851 | ehbond = -43.5087369456753 | exstk = -23.1635857071158 | ecoaxstk = 0 | edh = 5.27183392093357 | epot = -196.79131197814 | etot = -152.109388164463
16400  ekin = 19.5962042654779 |  erot = 23.1030783280396 | edyn = 42.6992825935175 | ebond = 6.82497880144298 | eexcv = 0 | estk = -139.560789165951 | ehbond = -40.980015790086 | exstk = -25.5011046625909 | ecoaxstk = 0 | edh = 5.23808314692743 | epot = -193.978847670258 | etot = -151.27956507674
16500  ekin = 23.0175666084191 |  erot = 21.6403150903137 | edyn = 44.6578816987328 | ebond = 5.55274631124378 | eexcv = 0 | estk = -139.808210538591 | ehbond = -43.6894246007985 | exstk = -24.1892627465065 | ecoaxstk = 0 | edh = 5.28861605740636 | epot = -196.845535517246 | etot = -152.187653818513
16600  ekin = 19.8774115237544 |  erot = 20.685770272849 | edyn = 40.5631817966034 | ebond = 7.0193374085745 | eexcv = 0 | estk = -138.574862673591 | ehbond = -39.8462300331832 | exstk = -24.1820799569816 | ecoaxstk = 0 | edh = 5.35258837219913 | epot = -190.231246882983 | etot = -149.668065086379
16700  ekin = 21.5016208486107 |  erot = 20.4067497334088 | edyn = 41.9083705820195 | ebond = 7.74612393840712 | eexcv = 0.0273275895687101 | estk = -139.342216180595 | ehbond = -42.4643446770362 | exstk = -23.6745223382501 | ecoaxstk = 0 | edh = 5.35476268343245 | epot = -192.352868984473 | etot = -150.444498402453
16800  ekin = 23.7647717879158 |  erot = 20.5408648687738 | edyn = 44.3056366566896 | ebond = 5.57361575387229 | eexcv = 0 | estk = -140.363386703541 | ehbond = -40.6888803302559 | exstk = -25.0383173578317 | ecoaxstk = 0 | edh = 5.22898364190485 | epot = -195.287984995852 | etot = -150.982348339162
16900  ekin = 21.7972004484028 |  erot = 23.2686080043952 | edyn = 45.065808452798 | ebond = 7.7803638311575 | eexcv = 0 | estk = -141.564779845548 | ehbond = -38.6815133863766 | exstk = -25.5202748544754 | ecoaxstk = 0 | edh = 5.2640567767546 | epot = -192.722147478488 | etot = -147.65633902569
17000  ekin = 19.5579715783829 |  erot = 22.5968426698123 | edyn = 42.1548142481952 | ebond = 7.3444387005545 | eexcv = 0 | estk = -139.357021759157 | ehbond = -40.6867261887909 | exstk = -24.5783725489583 | ecoaxstk = 0 | edh = 5.29846276688924 | epot = -191.979219029462 | etot = -149.824404781267
17100  ekin = 22.0507386685016 |  erot = 23.1949094922413 | edyn = 45.2456481607429 | ebond = 7.15591818409373 | eexcv = 0.0344429773011983 | estk = -138.580842661948 | ehbond = -40.2823943881582 | exstk = -24.1062866662529 | ecoaxstk = 0 | edh = 5.32382406561358 | epot = -190.455338489351 | etot = -145.209690328608
17200  ekin = 21.6640086842368 |  erot = 24.7061231143754 | edyn = 46.3701317986122 | ebond = 6.88914352458357 | eexcv = 0.000502492116614736 | estk = -139.846443710323 | ehbond = -39.853897579635 | exstk = -22.3242722943538 | ecoaxstk = 0 | edh = 5.40657524013631 | epot = -189.728392327475 | etot = -143.358260528863
17300  ekin = 20.5399127670353 |  erot = 23.1464468585659 | edyn = 43.6863596256012 | ebond = 6.39413851338298 | eexcv = 0 | estk = -138.780868215244 | ehbond = -38.8101093578297 | exstk = -22.5382069245906 | ecoaxstk = 0 | edh = 5.37502120757056 | epot = -188.360024776711 | etot = -144.673665151109
17400  ekin = 23.9548699960553 |  erot = 21.5260711811643 | edyn = 45.4809411772196 | ebond = 6.25605326968842 | eexcv = 0 | estk = -139.879580388986 | ehbond = -37.8548648300434 | exstk = -25.5060074223332 | ecoaxstk = 0 | edh = 5.39018301196336 | epot = -191.594216359711 | etot = -146.113275182491
17500  ekin = 23.4087869767422 |  erot = 20.4781150069804 | edyn = 43.8869019837227 | ebond = 6.71764258286847 | eexcv = 0 | estk = -136.311329437848 | ehbond = -38.705607217475 | exstk = -23.7605049047561 | ecoaxstk = 0 | edh = 5.44201601892684 | epot = -186.617782958284 | etot = -142.730880974562
17600  ekin = 21.1402685790122 |  erot = 23.2765788954255 | edyn = 44.4168474744376 | ebond = 6.58585057518238 | eexcv = 0 | estk = -137.486382151864 | ehbond = -37.9116791995446 | exstk = -23.9636511569408 | ecoaxstk = 0 | edh = 5.44624948363736 | epot = -187.32961244953 | etot = -142.912764975092
17700  ekin = 22.2178354709948 |  erot = 22.5632180002258 | edyn = 44.7810534712206 | ebond = 4.57745222172961 | eexcv = 0 | estk = -140.122974504 | ehbond = -39.1802986809108 | exstk = -22.3104513267715 | ecoaxstk = 0 | edh = 5.379939285167 | epot = -191.656333004786 | etot = -146.875279533565
17800  ekin = 20.0213664716484 |  erot = 21.1636750483345 | edyn = 41.1850415199829 | ebond = 6.68976666186247 | eexcv = 0 | estk = -138.818143976553 | ehbond = -38.5757403787069 | exstk = -23.2641104652821 | ecoaxstk = 0 | edh = 5.36203392745322 | epot = -188.606194231227 | etot = -147.421152711244
17900  ekin = 23.8566256082547 |  erot = 20.3164154501812 | edyn = 44.1730410584359 | ebond = 8.15374857149601 | eexcv = 0 | estk = -141.845419213126 | ehbond = -39.4105856643221 | exstk = -22.2554270618816 | ecoaxstk = 0 | edh = 5.41074638052606 | epot = -189.946936987307 | etot = -145.773895928871
18000  ekin = 21.354313293158 |  erot = 24.9132142612612 | edyn = 46.2675275544192 | ebond = 6.1683070360424 | eexcv = 0 | estk = -138.787139476957 | ehbond = -38.2291661909544 | exstk = -21.9515993281788 | ecoaxstk = 0 | edh = 5.38753492223815 | epot = -187.41206303781 | etot = -141.144535483391
18100  ekin = 24.5220379210843 |  erot = 22.9172325566616 | edyn = 47.4392704777459 | ebond = 5.56835524091587 | eexcv = 0 | estk = -141.903587656275 | ehbond = -39.1379455993538 | exstk = -23.1989984302742 | ecoaxstk = 0 | edh = 5.42273989346088 | epot = -193.249436551526 | etot = -145.81016607378
18200  ekin = 22.6629780237343 |  erot = 24.0380361694254 | edyn = 46.7010141931597 | ebond = 6.77932087344472 | eexcv = 0 | estk = -140.931055087036 | ehbond = -35.7806244454117 | exstk = -23.7586825672719 | ecoaxstk = 0 | edh = 5.4759901414284 | epot = -188.215051084846 | etot = -141.514036891686
18300  ekin = 22.1505446219011 |  erot = 21.1316812417225 | edyn = 43.2822258636237 | ebond = 7.28517924486886 | eexcv = 0.0052894608164651 | estk = -143.06964689359 | ehbond = -38.9648812777263 | exstk = -21.8004020808198 | ecoaxstk = 0 | edh = 5.51792312781356 | epot = -191.026538418637 | etot = -147.744312555013
18400  ekin = 21.228446736759 |  erot = 21.5153709592548 | edyn = 42.7438176960138 | ebond = 5.98511083346417 | eexcv = 0 | estk = -141.883189180717 | ehbond = -35.7766057395107 | exstk = -23.0641733196257 | ecoaxstk = 0 | edh = 5.58722444139114 | epot = -189.151632964998 | etot = -146.407815268984
18500  ekin = 20.2717286992874 |  erot = 19.7026238073671 | edyn = 39.9743525066545 | ebond = 7.22232104807952 | eexcv = 0 | estk = -141.605581152141 | ehbond = -38.8288111232518 | exstk = -22.7833333275901 | ecoaxstk = 0 | edh = 5.68266246769797 | epot = -190.312742087205 | etot = -150.338389580551
18600  ekin = 23.3975231720149 |  erot = 21.9585596030134 | edyn = 45.3560827750283 | ebond = 5.9611730187104 | eexcv = 0 | estk = -141.976663396935 | ehbond = -38.1722424842735 | exstk = -22.1360129968939 | ecoaxstk = 0 | edh = 5.72729187902733 | epot = -190.596453980365 | etot = -145.240371205337
18700  ekin = 22.9596651539811 |  erot = 22.6710237677827 | edyn = 45.6306889217638 | ebond = 8.01599743945162 | eexcv = 0 | estk = -138.90607331215 | ehbond = -40.5126531521594 | exstk = -22.2913216228322 | ecoaxstk = 0 | edh = 5.6538355811218 | epot = -188.040215066568 | etot = -142.409526144804
18800  ekin = 24.6089494580141 |  erot = 23.0556939703941 | edyn = 47.6646434284083 | ebond = 6.77096159084475 | eexcv = 0.333309481018553 | estk = -139.548242476554 | ehbond = -39.3178296129422 | exstk = -22.3394427416774 | ecoaxstk = 0 | edh = 5.66951096496213 | epot = -188.431732794348 | etot = -140.76708936594
18900  ekin = 22.8865616982632 |  erot = 22.6540900720856 | edyn = 45.5406517703488 | ebond = 8.01835829799445 | eexcv = 0 | estk = -139.361882869096 | ehbond = -38.8471180017222 | exstk = -21.8282574306318 | ecoaxstk = 0 | edh = 5.7480311838802 | epot = -186.270868819576 | etot = -140.730217049227
19000  ekin = 22.9196549516185 |  erot = 23.7208225658324 | edyn = 46.640477517451 | ebond = 7.16689250979416 | eexcv = 0 | estk = -138.716652680675 | ehbond = -38.2432313463397 | exstk = -22.4029933403615 | ecoaxstk = 0 | edh = 5.75093838206959 | epot = -186.445046475512 | etot = -139.804568958061
19100  ekin = 23.6585165634791 |  erot = 24.1825238744779 | edyn = 47.841040437957 | ebond = 7.79443548721955 | eexcv = 0 | estk = -137.90289812627 | ehbond = -42.565228481465 | exstk = -22.9342478706188 | ecoaxstk = 0 | edh = 5.66138075613533 | epot = -189.946558234999 | etot = -142.105517797042
19200  ekin = 24.8618456252112 |  erot = 22.3649498579728 | edyn = 47.226795483184 | ebond = 7.77299256290521 | eexcv = 0 | estk = -139.73931739189 | ehbond = -42.6924443093891 | exstk = -23.1740474899908 | ecoaxstk = 0 | edh = 5.596202717874 | epot = -192.236613910491 | etot = -145.009818427307
19300  ekin = 22.8551242907016 |  erot = 21.798171863658 | edyn = 44.6532961543596 | ebond = 6.50533145443805 | eexcv = 0 | estk = -137.871796429025 | ehbond = -42.6131406658657 | exstk = -23.1595951223121 | ecoaxstk = 0 | edh = 5.56749357647553 | epot = -191.57170718629 | etot = -146.91841103193
19400  ekin = 23.8361612392784 |  erot = 22.6262342071724 | edyn = 46.4623954464508 | ebond = 7.90747541948942 | eexcv = 0 | estk = -140.664484159777 | ehbond = -43.0404581009534 | exstk = -23.955532627474 | ecoaxstk = 0 | edh = 5.42778731907796 | epot = -194.325212149637 | etot = -147.862816703186
19500  ekin = 21.917546625068 |  erot = 23.93439181793 | edyn = 45.8519384429981 | ebond = 7.4265962512107 | eexcv = 0 | estk = -141.666438081281 | ehbond = -41.8708774954696 | exstk = -22.5869342270218 | ecoaxstk = 0 | edh = 5.39102989243697 | epot = -193.306623660125 | etot = -147.454685217127
19600  ekin = 18.7393203826841 |  erot = 22.8177537175175 | edyn = 41.5570741002016 | ebond = 6.36043575915839 | eexcv = 0 | estk = -137.933333642466 | ehbond = -40.7464061520254 | exstk = -26.0500168987102 | ecoaxstk = 0 | edh = 5.37458152864144 | epot = -192.994739405402 | etot = -151.4376653052
19700  ekin = 21.1651755609385 |  erot = 20.5684826918296 | edyn = 41.7336582527681 | ebond = 8.32167207054003 | eexcv = 0 | estk = -136.679854564749 | ehbond = -43.7228954559825 | exstk = -25.0866772466291 | ecoaxstk = 0 | edh = 5.35940019914594 | epot = -191.808354997675 | etot = -150.074696744907
19800  ekin = 22.3126191596855 |  erot = 20.2681669180805 | edyn = 42.580786077766 | ebond = 6.76687879645732 | eexcv = 0.0387279518196108 | estk = -141.388640446092 | ehbond = -42.9878419866 | exstk = -24.6873070228997 | ecoaxstk = 0 | edh = 5.3526090443354 | epot = -196.90557366298 | etot = -154.324787585214
19900  ekin = 21.7925763251934 |  erot = 22.3431488174024 | edyn = 44.1357251425958 | ebond = 5.68818765444354 | eexcv = 0 | estk = -139.85660498545 | ehbond = -45.0471245533476 | exstk = -24.7258464900505 | ecoaxstk = 0 | edh = 5.40084547515444 | epot = -198.54054289925 | etot = -154.404817756654
20000  ekin = 20.2635452214518 |  erot = 23.9001845876207 | edyn = 44.1637298090725 | ebond = 7.42834098207862 | eexcv = 0 | estk = -136.866682399742 | ehbond = -44.0738519082585 | exstk = -24.7709082462606 | ecoaxstk = 0 | edh = 5.36636259697751 | epot = -192.916738975205 | etot = -148.753009166133
20100  ekin = 25.3901728599358 |  erot = 20.8796553381638 | edyn = 46.2698281980997 | ebond = 6.44857764895618 | eexcv = 0 | estk = -137.802560506665 | ehbond = -43.9503602136144 | exstk = -24.0970896668837 | ecoaxstk = 0 | edh = 5.33601256665583 | epot = -194.065420171551 | etot = -147.795591973451
20200  ekin = 24.3260176328503 |  erot = 21.0370652302838 | edyn = 45.363082863134 | ebond = 6.53735509442403 | eexcv = 0.0905297860308142 | estk = -138.556757623817 | ehbond = -43.1872670000057 | exstk = -23.6025309841482 | ecoaxstk = 0 | edh = 5.35200408420971 | epot = -193.366666643306 | etot = -148.003583780172
20300  ekin = 21.9101990040033 |  erot = 21.3770522576837 | edyn = 43.2872512616871 | ebond = 6.88434369612438 | eexcv = 0 | estk = -139.117172162959 | ehbond = -40.7339028221089 | exstk = -23.5119195696443 | ecoaxstk = 0 | edh = 5.29444872205254 | epot = -191.184202136535 | etot = -147.896950874848
20400  ekin = 25.3811664681499 |  erot = 23.3501386165524 | edyn = 48.7313050847023 | ebond = 7.01640209208574 | eexcv = 0 | estk = -141.282170707136 | ehbond = -41.8203181132644 | exstk = -22.367185793336 | ecoaxstk = 0 | edh = 5.30514637607186 | epot = -193.148126145579 | etot = -144.416821060877
20500  ekin = 20.5003891654476 |  erot = 21.6940217417947 | edyn = 42.1944109072423 | ebond = 6.85912516567392 | eexcv = 0 | estk = -138.210581489368 | ehbond = -42.8184932366041 | exstk = -23.925914851115 | ecoaxstk = 0 | edh = 5.16736428040324 | epot = -192.92850013101 | etot = -150.734089223768
20600  ekin = 20.5300553809682 |  erot = 21.7331362581212 | edyn = 42.2631916390894 | ebond = 6.7820860329058 | eexcv = 0 | estk = -138.426514398453 | ehbond = -42.9946605104336 | exstk = -23.7363649068691 | ecoaxstk = 0 | edh = 5.09175372998559 | epot = -193.283700052864 | etot = -151.020508413774
20700  ekin = 19.7656496226363 |  erot = 22.7581616926185 | edyn = 42.5238113152548 | ebond = 7.20767033346935 | eexcv = 0.072707497746841 | estk = -138.746930382617 | ehbond = -43.5002670622519 | exstk = -25.0452478547943 | ecoaxstk = 0 | edh = 5.08673946107224 | epot = -194.925328007375 | etot = -152.40151669212
20800  ekin = 23.1720272057749 |  erot = 21.8643036390317 | edyn = 45.0363308448066 | ebond = 6.60205503513655 | eexcv = 0 | estk = -136.356764703959 | ehbond = -41.7856945812894 | exstk = -25.1679462791619 | ecoaxstk = 0 | edh = 5.12484524943741 | epot = -191.583505279836 | etot = -146.547174435029
20900  ekin = 22.0876040418896 |  erot = 22.8123612057533 | edyn = 44.8999652476429 | ebond = 6.16537367743713 | eexcv = 0 | estk = -139.224101152467 | ehbond = -44.8024704471501 | exstk = -24.0328262693994 | ecoaxstk = 0 | edh = 5.14735753175848 | epot = -196.746666659821 | etot = -151.846701412178
21000  ekin = 21.4701818205848 |  erot = 22.8060225208017 | edyn = 44.2762043413865 | ebond = 6.32434239661802 | eexcv = 0 | estk = -139.528710406525 | ehbond = -40.885540539618 | exstk = -23.2089310594741 | ecoaxstk = 0 | edh = 5.25853581262154 | epot = -192.040303796378 | etot = -147.764099454991
21100  ekin = 21.7666787855239 |  erot = 24.5621880659306 | edyn = 46.3288668514545 | ebond = 8.13063401770504 | eexcv = 0 | estk = -134.69340114959 | ehbond = -43.3925737293821 | exstk = -22.7539390819263 | ecoaxstk = 0 | edh = 5.28972753671734 | epot = -187.419552406477 | etot = -141.090685555022
21200  ekin = 24.5590497185463 |  erot = 23.4861251381882 | edyn = 48.0451748567345 | ebond = 5.9640538775915 | eexcv = 0 | estk = -137.077019325472 | ehbond = -43.0829673442285 | exstk = -23.1633718577071 | ecoaxstk = 0 | edh = 5.2747745392643 | epot = -192.084530110552 | etot = -144.039355253817
21300  ekin = 25.7083776881689 |  erot = 20.7901215097221 | edyn = 46.498499197891 | ebond = 6.55474653318959 | eexcv = 0 | estk = -137.923884962861 | ehbond = -43.9611293031765 | exstk = -23.5553724827355 | ecoaxstk = 0 | edh = 5.37272464685331 | epot = -193.51291556873 | etot = -147.014416370839
21400  ekin = 23.2925131639324 |  erot = 23.0797540811416 | edyn = 46.372267245074 | ebond = 6.33999950022323 | eexcv = 0 | estk = -135.871751735794 | ehbond = -41.7837305965692 | exstk = -23.2082895381686 | ecoaxstk = 0 | edh = 5.37227654714555 | epot = -189.151495823163 | etot = -142.779228578089
21500  ekin = 21.0893776022317 |  erot = 28.0774759397837 | edyn = 49.1668535420155 | ebond = 5.25323234973077 | eexcv = 0 | estk = -136.459731436611 | ehbond = -42.3614946528306 | exstk = -23.7932727310907 | ecoaxstk = 0 | edh = 5.37744779532399 | epot = -191.983818675477 | etot = -142.816965133462
21600  ekin = 22.1509776761503 |  erot = 21.4772591864619 | edyn = 43.6282368626122 | ebond = 7.39651504084313 | eexcv = 0 | estk = -137.377973728932 | ehbond = -43.1443068937661 | exstk = -23.4664630565769 | ecoaxstk = 0 | edh = 5.30766629763763 | epot = -191.284562340794 | etot = -147.656325478182
21700  ekin = 20.215691544176 |  erot = 22.7140060681717 | edyn = 42.9296976123477 | ebond = 6.0970233352289 | eexcv = 0 | estk = -137.970666462754 | ehbond = -40.6549077017462 | exstk = -22.9782615791624 | ecoaxstk = 0 | edh = 5.23356179587592 | epot = -190.273250612558 | etot = -147.34355300021
21800  ekin = 20.674068572946 |  erot = 23.6621048250839 | edyn = 44.3361733980299 | ebond = 7.03320318951456 | eexcv = 0 | estk = -135.164569856311 | ehbond = -43.4937280352541 | exstk = -22.1942750012868 | ecoaxstk = 0 | edh = 5.19349756566592 | epot = -188.625872137671 | etot = -144.289698739641
21900  ekin = 21.9934564299986 |  erot = 24.9423699548696 | edyn = 46.9358263848682 | ebond = 7.05636362571966 | eexcv = 0 | estk = -137.967716921453 | ehbond = -41.0013129091234 | exstk = -23.634803286059 | ecoaxstk = 0 | edh = 5.27612608386132 | epot = -190.271343407054 | etot = -143.335517022186
22000  ekin = 24.095316905354 |  erot = 23.9731914084369 | edyn = 48.0685083137909 | ebond = 6.66483871267852 | eexcv = 0 | estk = -138.349068361876 | ehbond = -45.0969179718571 | exstk = -22.2432395722461 | ecoaxstk = 0 | edh = 5.39147652373125 | epot = -193.63291066957 | etot = -145.564402355779
22100  ekin = 22.751053250242 |  erot = 24.5096030860288 | edyn = 47.2606563362708 | ebond = 9.32885789505535 | eexcv = 0 | estk = -139.150958537491 | ehbond = -44.3857973433391 | exstk = -22.9084508181068 | ecoaxstk = 0 | edh = 5.26069131141016 | epot = -191.855657492471 | etot = -144.595001156201
22200  ekin = 22.3928441508711 |  erot = 22.0972679688699 | edyn = 44.490112119741 | ebond = 6.63841043131162 | eexcv = 0 | estk = -138.233840011576 | ehbond = -41.1625138156907 | exstk = -25.0381981383242 | ecoaxstk = 0 | edh = 5.25029542975659 | epot = -192.545846104522 | etot = -148.055733984781
22300  ekin = 24.3348530714368 |  erot = 24.0765385788925 | edyn = 48.4113916503293 | ebond = 5.87950416428809 | eexcv = 0 | estk = -136.989815584305 | ehbond = -40.6885464343895 | exstk = -24.3791848720751 | ecoaxstk = 0 | edh = 5.25389035298133 | epot = -190.9241523735 | etot = -142.51276072317
22400  ekin = 23.6432250695583 |  erot = 25.0297407410869 | edyn = 48.6729658106452 | ebond = 7.09228135812775 | eexcv = 0 | estk = -138.69560487038 | ehbond = -42.9554496894374 | exstk = -24.4703988808257 | ecoaxstk = 0 | edh = 5.30411257445944 | epot = -193.725059508056 | etot = -145.052093697411
22500  ekin = 18.7029762226137 |  erot = 22.9776628367599 | edyn = 41.6806390593736 | ebond = 6.28889668513056 | eexcv = 0 | estk = -136.815340164511 | ehbond = -44.2238911091617 | exstk = -23.2220201567685 | ecoaxstk = 0 | edh = 5.27914189247314 | epot = -192.693212852837 | etot = -151.012573793463
22600  ekin = 19.0901208787206 |  erot = 22.319485433029 | edyn = 41.4096063117496 | ebond = 6.83687728633535 | eexcv = 0 | estk = -136.48644157075 | ehbond = -44.4399312199016 | exstk = -23.2369289895999 | ecoaxstk = 0 | edh = 5.24257056768034 | epot = -192.083853926235 | etot = -150.674247614486
22700  ekin = 23.2902168147765 |  erot = 22.0353803274969 | edyn = 45.3255971422734 | ebond = 7.35803803242429 | eexcv = 0 | estk = -139.43385463928 | ehbond = -43.9622003777478 | exstk = -24.4976375356543 | ecoaxstk = 0 | edh = 5.14552441997267 | epot = -195.390130100285 | etot = -150.064532958012
22800  ekin = 21.5754386477492 |  erot = 20.4230928171875 | edyn = 41.9985314649367 | ebond = 7.31865886024305 | eexcv = 0 | estk = -137.300264880584 | ehbond = -45.1575309189314 | exstk = -23.9491724052779 | ecoaxstk = 0 | edh = 5.20545117757367 | epot = -193.882858166976 | etot = -151.884326702039
22900  ekin = 21.3340974374902 |  erot = 22.6689149529158 | edyn = 44.003012390406 | ebond = 7.18706019006957 | eexcv = 0 | estk = -137.110180070278 | ehbond = -43.5997720327778 | exstk = -24.122779747063 | ecoaxstk = 0 | edh = 5.15486263583301 | epot = -192.490809024216 | etot = -148.48779663381
23000  ekin = 22.6256312787886 |  erot = 23.4620594199045 | edyn = 46.0876906986931 | ebond = 6.60572849363537 | eexcv = 0 | estk = -137.391789806555 | ehbond = -46.4290967747432 | exstk = -24.6619542061193 | ecoaxstk = 0 | edh = 5.13972212359801 | epot = -196.737390170184 | etot = -150.649699471491
23100  ekin = 24.1646187669381 |  erot = 21.8364230348252 | edyn = 46.0010418017633 | ebond = 5.99108462288385 | eexcv = 0 | estk = -142.947343352192 | ehbond = -42.9742487263787 | exstk = -23.7023798743346 | ecoaxstk = 0 | edh = 5.15386890501326 | epot = -198.479018425008 | etot = -152.477976623244
23200  ekin = 20.1589138306311 |  erot = 22.7017461275495 | edyn = 42.8606599581805 | ebond = 7.03789750753079 | eexcv = 0.0257435790222975 | estk = -139.138517567278 | ehbond = -41.0638363445628 | exstk = -23.7711744520315 | ecoaxstk = 0 | edh = 5.17591926948236 | epot = -191.733968007837 | etot = -148.873308049657
23300  ekin = 22.5871012739485 |  erot = 22.4390122928133 | edyn = 45.0261135667617 | ebond = 6.85743638775012 | eexcv = 0 | estk = -139.078021954038 | ehbond = -41.4272738650131 | exstk = -24.8471535889333 | ecoaxstk = 0 | edh = 5.1465492407716 | epot = -193.348463779463 | etot = -148.322350212701
23400  ekin = 19.7955359099788 |  erot = 23.0561902848618 | edyn = 42.8517261948406 | ebond = 6.40960791554104 | eexcv = 0 | estk = -135.612279717899 | ehbond = -42.2202210664261 | exstk = -24.8741724236734 | ecoaxstk = 0 | edh = 5.17491975267973 | epot = -191.122145539778 | etot = -148.270419344937
23500  ekin = 23.8860284373292 |  erot = 20.9284493456527 | edyn = 44.8144777829819 | ebond = 7.93129040513074 | eexcv = 0 | estk = -137.636697648893 | ehbond = -40.5394460066519 | exstk = -24.255693733302 | ecoaxstk = 0 | edh = 5.1905819272024 | epot = -189.309965056514 | etot = -144.495487273532
23600  ekin = 23.2675999045213 |  erot = 20.8153806167812 | edyn = 44.0829805213025 | ebond = 7.57282077696723 | eexcv = 0 | estk = -135.061536436084 | ehbond = -40.0065641370187 | exstk = -26.7917150608067 | ecoaxstk = 0 | edh = 5.180280477319 | epot = -189.106714379623 | etot = -145.023733858321
23700  ekin = 23.5978181290453 |  erot = 23.9385582098917 | edyn = 47.536376338937 | ebond = 5.7519456604127 | eexcv = 0 | estk = -135.204240426556 | ehbond = -42.7621754885264 | exstk = -23.2517395250531 | ecoaxstk = 0 | edh = 5.23047716011493 | epot = -190.235732619607 | etot = -142.69935628067
23800  ekin = 22.4814025072995 |  erot = 20.1978494674237 | edyn = 42.6792519747232 | ebond = 5.93520049099068 | eexcv = 0 | estk = -136.309918447845 | ehbond = -42.2384790101508 | exstk = -24.0913915375642 | ecoaxstk = 0 | edh = 5.32337541409476 | epot = -191.381213090475 | etot = -148.701961115752
[...]
494000  ekin = 23.1196078559354 |  erot = 25.2185363998035 | edyn = 48.3381442557389 | ebond = 6.39941314547644 | eexcv = 0 | estk = -139.292711247883 | ehbond = -57.5908111685202 | exstk = -22.1464202940598 | ecoaxstk = 0 | edh = 5.07133789068201 | epot = -207.559191674304 | etot = -159.221047418566
494100  ekin = 22.4213613606789 |  erot = 21.8516508674966 | edyn = 44.2730122281755 | ebond = 6.61113950359079 | eexcv = 0 | estk = -137.267381825556 | ehbond = -52.1943950539815 | exstk = -22.5739407236604 | ecoaxstk = 0 | edh = 5.09167777290203 | epot = -200.332900326705 | etot = -156.059888098529
494200  ekin = 24.4369876541288 |  erot = 22.7538285589047 | edyn = 47.1908162130335 | ebond = 6.03574703864939 | eexcv = 0 | estk = -138.577982019744 | ehbond = -53.0341086701155 | exstk = -24.2438970178493 | ecoaxstk = 0 | edh = 5.02083287808354 | epot = -204.799407790976 | etot = -157.608591577942
494300  ekin = 24.4897056348637 |  erot = 24.6442082975796 | edyn = 49.1339139324433 | ebond = 7.20438760620492 | eexcv = 0 | estk = -142.005185531564 | ehbond = -54.0398470798689 | exstk = -24.4262286238605 | ecoaxstk = 0 | edh = 5.05596978061495 | epot = -208.210903848474 | etot = -159.07698991603
494400  ekin = 20.6661001911334 |  erot = 22.1248427547637 | edyn = 42.7909429458971 | ebond = 6.92849271320655 | eexcv = 0.0288549827308924 | estk = -139.744462342126 | ehbond = -53.4964778277408 | exstk = -24.480452238137 | ecoaxstk = 0 | edh = 5.04798826770375 | epot = -205.716056444363 | etot = -162.925113498466
494500  ekin = 23.4780565429008 |  erot = 20.1687082521718 | edyn = 43.6467647950727 | ebond = 6.58235085752364 | eexcv = 0 | estk = -139.08039233215 | ehbond = -52.0323169915874 | exstk = -23.6158657807802 | ecoaxstk = 0 | edh = 4.98429518267414 | epot = -203.16192906432 | etot = -159.515164269248
494600  ekin = 23.503572333427 |  erot = 18.8583262885356 | edyn = 42.3618986219626 | ebond = 7.06806097951428 | eexcv = 0 | estk = -140.033687992705 | ehbond = -50.1047353069301 | exstk = -23.0793927082248 | ecoaxstk = 0 | edh = 5.00396105178595 | epot = -201.145793976559 | etot = -158.783895354597
494700  ekin = 26.9468398245501 |  erot = 22.2744837682188 | edyn = 49.2213235927689 | ebond = 6.89087742841637 | eexcv = 0 | estk = -138.317460785998 | ehbond = -54.8684231576372 | exstk = -26.0883591866526 | ecoaxstk = 0 | edh = 4.89012907235703 | epot = -207.493236629515 | etot = -158.271913036746
494800  ekin = 21.1775741205851 |  erot = 22.2940929285008 | edyn = 43.4716670490859 | ebond = 5.79472754378215 | eexcv = 0 | estk = -139.546088892974 | ehbond = -55.88311042917 | exstk = -22.2030398373786 | ecoaxstk = 0 | edh = 4.95712871019199 | epot = -206.880382905549 | etot = -163.408715856463
494900  ekin = 21.7424653414606 |  erot = 19.7800339425659 | edyn = 41.5224992840264 | ebond = 7.0038536110999 | eexcv = 0 | estk = -141.396495757696 | ehbond = -52.5465394723212 | exstk = -24.9397629204748 | ecoaxstk = 0 | edh = 4.94208549580031 | epot = -206.936859043591 | etot = -165.414359759565
495000  ekin = 21.8224248858875 |  erot = 22.3299324410192 | edyn = 44.1523573269067 | ebond = 6.58956459154656 | eexcv = 0 | estk = -139.46026830953 | ehbond = -53.7587732288789 | exstk = -25.5995227272022 | ecoaxstk = 0 | edh = 4.85245146722161 | epot = -207.376548206843 | etot = -163.224190879936
495100  ekin = 22.8883091792536 |  erot = 21.7334694548269 | edyn = 44.6217786340805 | ebond = 7.7042458247801 | eexcv = 0 | estk = -138.173589110831 | ehbond = -59.7529628490318 | exstk = -24.0358782546922 | ecoaxstk = 0 | edh = 4.90547645540815 | epot = -209.352707934367 | etot = -164.730929300286
495200  ekin = 21.9064766979166 |  erot = 24.5033130236917 | edyn = 46.4097897216082 | ebond = 8.07501059796546 | eexcv = 0 | estk = -140.61855579278 | ehbond = -53.6452789743798 | exstk = -24.5106729175613 | ecoaxstk = 0 | edh = 4.95651853181269 | epot = -205.742978554943 | etot = -159.333188833334
495300  ekin = 22.3564203406676 |  erot = 22.9230641755731 | edyn = 45.2794845162407 | ebond = 6.58789258477656 | eexcv = 0 | estk = -137.809077262795 | ehbond = -53.6938152375715 | exstk = -25.4896613589519 | ecoaxstk = 0 | edh = 4.89283842647382 | epot = -205.511822848068 | etot = -160.232338331827
495400  ekin = 26.4709788591851 |  erot = 21.8659931646085 | edyn = 48.3369720237936 | ebond = 5.39999019795609 | eexcv = 0 | estk = -137.907647192539 | ehbond = -55.611274468875 | exstk = -25.5833662559903 | ecoaxstk = 0 | edh = 4.8237325557565 | epot = -208.878565163692 | etot = -160.541593139898
495500  ekin = 24.6327120441906 |  erot = 22.7728441617413 | edyn = 47.4055562059318 | ebond = 6.16963986875461 | eexcv = 0 | estk = -138.182496710161 | ehbond = -55.7368768242161 | exstk = -23.2928514399707 | ecoaxstk = 0 | edh = 4.85172783581485 | epot = -206.190857269779 | etot = -158.785301063847
495600  ekin = 23.4203217958843 |  erot = 20.5812182198048 | edyn = 44.0015400156891 | ebond = 5.95404625451482 | eexcv = 0 | estk = -139.153086440826 | ehbond = -56.8698599141873 | exstk = -22.7137400702169 | ecoaxstk = 0 | edh = 4.94596023870523 | epot = -207.83667993201 | etot = -163.835139916321
495700  ekin = 22.3176601067197 |  erot = 19.5964974535025 | edyn = 41.9141575602222 | ebond = 6.69310384261304 | eexcv = 0 | estk = -136.832080726406 | ehbond = -55.3306130976175 | exstk = -23.5735951096272 | ecoaxstk = 0 | edh = 4.98370050567849 | epot = -204.059484585359 | etot = -162.145327025137
495800  ekin = 22.1853730935438 |  erot = 18.6024716955962 | edyn = 40.7878447891399 | ebond = 6.18928662474452 | eexcv = 0 | estk = -140.511910899643 | ehbond = -53.261586364272 | exstk = -24.6683400742751 | ecoaxstk = 0 | edh = 4.9507430000955 | epot = -207.30180771335 | etot = -166.51396292421
495900  ekin = 22.1817972106761 |  erot = 20.3915766181234 | edyn = 42.5733738287995 | ebond = 5.83679647666982 | eexcv = 0 | estk = -139.457248138115 | ehbond = -58.1493853593818 | exstk = -23.5650362604268 | ecoaxstk = 0 | edh = 4.91846339392629 | epot = -210.416409887328 | etot = -167.843036058528
496000  ekin = 19.537459380204 |  erot = 21.0840329762886 | edyn = 40.6214923564926 | ebond = 7.19267136641369 | eexcv = 0 | estk = -134.687879454044 | ehbond = -55.7832820773904 | exstk = -24.9994267017548 | ecoaxstk = 0 | edh = 4.80136875248384 | epot = -203.476548114292 | etot = -162.855055757799
496100  ekin = 24.2931215495911 |  erot = 22.4809863869564 | edyn = 46.7741079365475 | ebond = 7.63349481718318 | eexcv = 0 | estk = -139.266578267898 | ehbond = -53.9997298717369 | exstk = -24.794309788275 | ecoaxstk = 0 | edh = 4.86931017740385 | epot = -205.557812933323 | etot = -158.783704996776
496200  ekin = 22.8489185473211 |  erot = 22.51018402968 | edyn = 45.3591025770011 | ebond = 6.22546257539143 | eexcv = 0 | estk = -134.31277646686 | ehbond = -57.9833606215888 | exstk = -24.0527660241524 | ecoaxstk = 0 | edh = 4.79202675055333 | epot = -205.331413786657 | etot = -159.972311209656
496300  ekin = 21.6932266608235 |  erot = 20.077901988048 | edyn = 41.7711286488715 | ebond = 6.9366170009786 | eexcv = 0 | estk = -134.570227372311 | ehbond = -52.3756447725884 | exstk = -25.55433053925 | ecoaxstk = 0 | edh = 4.80113556080542 | epot = -200.762450122365 | etot = -158.991321473494
496400  ekin = 24.2295952248333 |  erot = 22.1369656983514 | edyn = 46.3665609231846 | ebond = 6.9571199583146 | eexcv = 0 | estk = -135.376630884146 | ehbond = -56.0035270341068 | exstk = -24.0048552851651 | ecoaxstk = 0 | edh = 4.78512493736963 | epot = -203.642768307734 | etot = -157.276207384549
496500  ekin = 22.6018037540765 |  erot = 26.2545042174169 | edyn = 48.8563079714933 | ebond = 6.12838326899327 | eexcv = 0 | estk = -138.986344524907 | ehbond = -56.839305258679 | exstk = -23.9508587083162 | ecoaxstk = 0 | edh = 4.84928757084956 | epot = -208.79883765206 | etot = -159.942529680566
496600  ekin = 21.9125025075274 |  erot = 20.7582765234661 | edyn = 42.6707790309934 | ebond = 6.45989012689955 | eexcv = 0 | estk = -137.741705333397 | ehbond = -52.4319454297576 | exstk = -25.5561897557165 | ecoaxstk = 0 | edh = 4.91738008326172 | epot = -204.35257030871 | etot = -161.681791277717
496700  ekin = 19.1463773158168 |  erot = 21.7971368905439 | edyn = 40.9435142063608 | ebond = 7.35881129851201 | eexcv = 0 | estk = -136.509407856141 | ehbond = -57.3890769027216 | exstk = -25.9781213480611 | ecoaxstk = 0 | edh = 4.85585451971042 | epot = -207.661940288701 | etot = -166.71842608234
496800  ekin = 21.3685158137199 |  erot = 20.5398165231384 | edyn = 41.9083323368583 | ebond = 8.13974109771686 | eexcv = 0.0456177587401225 | estk = -138.625920965556 | ehbond = -56.1737941974283 | exstk = -25.7799748777792 | ecoaxstk = 0 | edh = 4.86793223940179 | epot = -207.526398944905 | etot = -165.618066608046
496900  ekin = 22.6860962868869 |  erot = 21.2615172405276 | edyn = 43.9476135274146 | ebond = 7.97525121923877 | eexcv = 0 | estk = -136.18719140141 | ehbond = -58.0350264488134 | exstk = -23.3168501040956 | ecoaxstk = 0 | edh = 4.85154046492033 | epot = -204.71227627016 | etot = -160.764662742746
497000  ekin = 22.5129996683174 |  erot = 23.461760650759 | edyn = 45.9747603190764 | ebond = 7.05312021437772 | eexcv = 0 | estk = -139.125588208531 | ehbond = -56.5885762399627 | exstk = -24.0153729423647 | ecoaxstk = 0 | edh = 4.82902021060661 | epot = -207.847396965874 | etot = -161.872636646798
497100  ekin = 20.0826477591221 |  erot = 20.0218620028236 | edyn = 40.1045097619457 | ebond = 6.96208673551783 | eexcv = 0 | estk = -136.870344238113 | ehbond = -57.647109128552 | exstk = -25.3127602484235 | ecoaxstk = 0 | edh = 4.79751535708007 | epot = -208.070611522491 | etot = -167.966101760545
497200  ekin = 21.4836873824742 |  erot = 21.5420817884771 | edyn = 43.0257691709513 | ebond = 6.12977218522573 | eexcv = 0 | estk = -138.158683519088 | ehbond = -54.1131619594112 | exstk = -25.0737902258637 | ecoaxstk = 0 | edh = 4.81110435352807 | epot = -206.404759165609 | etot = -163.378989994658
497300  ekin = 23.1427743595052 |  erot = 22.4354968612558 | edyn = 45.578271220761 | ebond = 7.16378568430948 | eexcv = 0 | estk = -139.586144719874 | ehbond = -54.9769951546258 | exstk = -24.7955777171295 | ecoaxstk = 0 | edh = 4.82329215632277 | epot = -207.371639750997 | etot = -161.793368530236
497400  ekin = 22.8795588159662 |  erot = 23.3233819173487 | edyn = 46.2029407333148 | ebond = 6.36391145093493 | eexcv = 0 | estk = -139.54208534269 | ehbond = -53.1393804541818 | exstk = -25.6719663100666 | ecoaxstk = 0 | edh = 4.84183121196354 | epot = -207.14768944404 | etot = -160.944748710725
497500  ekin = 22.2328532010466 |  erot = 21.6328558082683 | edyn = 43.8657090093149 | ebond = 6.56147559454902 | eexcv = 0 | estk = -140.271325454237 | ehbond = -57.1024241476424 | exstk = -24.1737812587252 | ecoaxstk = 0 | edh = 4.97214499976906 | epot = -210.013910266287 | etot = -166.148201256972
497600  ekin = 21.7557806428976 |  erot = 23.9355998691109 | edyn = 45.6913805120085 | ebond = 6.69733102078156 | eexcv = 0 | estk = -137.778159363588 | ehbond = -59.9981612012723 | exstk = -23.2940281768554 | ecoaxstk = 0 | edh = 4.88739308461612 | epot = -209.485624636318 | etot = -163.794244124309
497700  ekin = 24.5731932131648 |  erot = 21.4657323927796 | edyn = 46.0389256059444 | ebond = 6.10235979135985 | eexcv = 0 | estk = -134.504354736337 | ehbond = -55.9819845324828 | exstk = -24.2042036094762 | ecoaxstk = 0 | edh = 5.03971206125487 | epot = -203.548471025681 | etot = -157.509545419737
497800  ekin = 21.7492910280233 |  erot = 23.503900005924 | edyn = 45.2531910339473 | ebond = 6.05659688011771 | eexcv = 0.0117982104839101 | estk = -136.869898500381 | ehbond = -55.0787610023755 | exstk = -23.3430931665962 | ecoaxstk = 0 | edh = 5.03949371401417 | epot = -204.183863864737 | etot = -158.93067283079
497900  ekin = 22.831106162154 |  erot = 21.0624178991511 | edyn = 43.8935240613051 | ebond = 7.28640481241071 | eexcv = 0 | estk = -139.850490038028 | ehbond = -53.6047756284788 | exstk = -24.7223477398642 | ecoaxstk = 0 | edh = 5.0002183825844 | epot = -205.890990211376 | etot = -161.997466150071
498000  ekin = 22.6586812677988 |  erot = 21.0436278105124 | edyn = 43.7023090783113 | ebond = 7.15063535169962 | eexcv = 0 | estk = -133.210100519219 | ehbond = -53.9051205143898 | exstk = -23.2166342985315 | ecoaxstk = 0 | edh = 4.95178198617063 | epot = -198.229437994271 | etot = -154.527128915959
498100  ekin = 24.3373113309771 |  erot = 22.9642871618539 | edyn = 47.301598492831 | ebond = 6.7990917489417 | eexcv = 0 | estk = -134.887782168376 | ehbond = -55.4622084241509 | exstk = -23.7968596169665 | ecoaxstk = 0 | edh = 4.97290659495342 | epot = -202.374851865598 | etot = -155.073253372767
498200  ekin = 21.5645013662736 |  erot = 20.9192480889644 | edyn = 42.483749455238 | ebond = 6.11237163694356 | eexcv = 0 | estk = -136.992268111216 | ehbond = -55.3814957538402 | exstk = -22.6711983081955 | ecoaxstk = 0 | edh = 5.08349643989029 | epot = -203.849094096418 | etot = -161.36534464118
498300  ekin = 22.6590776250497 |  erot = 23.1350967840013 | edyn = 45.794174409051 | ebond = 7.44672260862878 | eexcv = 0 | estk = -136.267896550634 | ehbond = -60.1127059765604 | exstk = -24.7948691916175 | ecoaxstk = 0 | edh = 5.04593942605628 | epot = -208.682809684127 | etot = -162.888635275076
498400  ekin = 22.0129311696289 |  erot = 21.7028426930497 | edyn = 43.7157738626786 | ebond = 7.27828477451297 | eexcv = 0 | estk = -136.395271712386 | ehbond = -51.8764037895086 | exstk = -26.6981975528439 | ecoaxstk = 0 | edh = 4.99305627480519 | epot = -202.69853200542 | etot = -158.982758142742
498500  ekin = 23.3168783190669 |  erot = 21.3403015256537 | edyn = 44.6571798447206 | ebond = 7.61612893260586 | eexcv = 0 | estk = -136.258961559909 | ehbond = -55.4525479324672 | exstk = -23.0919878697173 | ecoaxstk = 0 | edh = 4.99157603795475 | epot = -202.195792391533 | etot = -157.538612546812
498600  ekin = 23.1270162460387 |  erot = 21.6375308736476 | edyn = 44.7645471196862 | ebond = 6.77892239637054 | eexcv = 0 | estk = -134.417126084435 | ehbond = -54.4739477123271 | exstk = -25.2793923168623 | ecoaxstk = 0 | edh = 4.85140043803931 | epot = -202.540143279215 | etot = -157.775596159529
498700  ekin = 24.0613264169678 |  erot = 23.239814171811 | edyn = 47.3011405887787 | ebond = 5.88461609922503 | eexcv = 0 | estk = -136.800086531977 | ehbond = -54.8628516158404 | exstk = -25.0558485244761 | ecoaxstk = 0 | edh = 4.86621740275221 | epot = -205.967953170316 | etot = -158.666812581537
498800  ekin = 25.5804846521574 |  erot = 23.758906310573 | edyn = 49.3393909627305 | ebond = 7.59436504930098 | eexcv = 0 | estk = -136.898853060909 | ehbond = -56.2989602599271 | exstk = -24.0841984027135 | ecoaxstk = 0 | edh = 4.96237030885492 | epot = -204.725276365394 | etot = -155.385885402663
498900  ekin = 21.8986296594437 |  erot = 22.7478117696158 | edyn = 44.6464414290595 | ebond = 7.17075988266442 | eexcv = 0 | estk = -135.432577603024 | ehbond = -54.2230484304972 | exstk = -24.8180931076734 | ecoaxstk = 0 | edh = 4.91128326584928 | epot = -202.39167599268 | etot = -157.745234563621
499000  ekin = 22.8525789729064 |  erot = 20.802568259036 | edyn = 43.6551472319424 | ebond = 7.00792717793876 | eexcv = 0 | estk = -136.950103428483 | ehbond = -57.434510772919 | exstk = -24.4791942208791 | ecoaxstk = 0 | edh = 4.96595238882312 | epot = -206.88992885552 | etot = -163.234781623577
499100  ekin = 22.3407010823932 |  erot = 21.2488711968734 | edyn = 43.5895722792666 | ebond = 7.18526471537842 | eexcv = 0 | estk = -137.86604795982 | ehbond = -57.593826451761 | exstk = -26.9241668180234 | ecoaxstk = 0 | edh = 4.92095358830134 | epot = -210.277822925925 | etot = -166.688250646658
499200  ekin = 20.9121567454091 |  erot = 20.9788271797657 | edyn = 41.8909839251748 | ebond = 7.05576939262797 | eexcv = 0.220689436377817 | estk = -135.340742161805 | ehbond = -55.9342666278566 | exstk = -26.2163410713988 | ecoaxstk = 0 | edh = 4.90100089063333 | epot = -205.313890141421 | etot = -163.422906216246
499300  ekin = 22.8642019648897 |  erot = 21.8484814488209 | edyn = 44.7126834137106 | ebond = 5.7154166960283 | eexcv = 0 | estk = -137.083271427286 | ehbond = -55.0050311661346 | exstk = -25.1479900565433 | ecoaxstk = 0 | edh = 4.8091782040197 | epot = -206.711697749915 | etot = -161.999014336205
499400  ekin = 21.260180971811 |  erot = 22.2479014221604 | edyn = 43.5080823939714 | ebond = 6.34264986195342 | eexcv = 0 | estk = -133.57055318831 | ehbond = -55.1706512569831 | exstk = -25.5821179321668 | ecoaxstk = 0 | edh = 4.68887951653346 | epot = -203.291792998973 | etot = -159.783710605002
499500  ekin = 25.6243199728753 |  erot = 23.017304127503 | edyn = 48.6416241003783 | ebond = 7.68780728944647 | eexcv = 0 | estk = -135.62852421076 | ehbond = -57.3774158795642 | exstk = -25.255138133299 | ecoaxstk = 0 | edh = 4.7501361486064 | epot = -205.82313478557 | etot = -157.181510685192
499600  ekin = 21.6793222426607 |  erot = 22.7249436138038 | edyn = 44.4042658564645 | ebond = 6.78275442033091 | eexcv = 0 | estk = -133.586438722922 | ehbond = -56.4018315299506 | exstk = -25.7067610027561 | ecoaxstk = 0 | edh = 4.77051648292874 | epot = -204.141760352369 | etot = -159.737494495905
499700  ekin = 20.8392048010449 |  erot = 20.1735114738164 | edyn = 41.0127162748613 | ebond = 7.02399558800706 | eexcv = 0 | estk = -136.463508014687 | ehbond = -58.5525643994695 | exstk = -24.0006067631195 | ecoaxstk = 0 | edh = 4.78473883341574 | epot = -207.207944755854 | etot = -166.195228480992
499800  ekin = 22.5352091379732 |  erot = 21.7560995263996 | edyn = 44.2913086643729 | ebond = 6.95160670167326 | eexcv = 0 | estk = -137.539329616197 | ehbond = -58.0181879691101 | exstk = -25.4644286069667 | ecoaxstk = 0 | edh = 4.71811003857813 | epot = -209.352229452022 | etot = -165.06092078765
499900  ekin = 20.3214558565077 |  erot = 19.4382991986742 | edyn = 39.7597550551819 | ebond = 7.75860820333343 | eexcv = 0 | estk = -135.55069704188 | ehbond = -58.0756233285969 | exstk = -26.2088174551266 | ecoaxstk = 0 | edh = 4.76446978055334 | epot = -207.312059841717 | etot = -167.552304786535
500000  ekin = 19.3427423572182 |  erot = 21.2776706891291 | edyn = 40.6204130463473 | ebond = 7.6926604712126 | eexcv = 0 | estk = -135.37980651947 | ehbond = -53.6001759933029 | exstk = -26.1793466808791 | ecoaxstk = 0 | edh = 4.74113977792373 | epot = -202.725528944515 | etot = -162.105115898168
    500000   0.087722188   -1.4217445      0.051977436   -1.2390729     -1.3000947e-06  1000000      
Loop time of 37.0294 on 8 procs for 500000 steps with 148 atoms

Performance: 5833209.541 tau/day, 13502.800 timesteps/s, 1.998 Matom-step/s
99.9% CPU use with 8 MPI tasks x 1 OpenMP threads

MPI task timing breakdown:
Section |  min time  |  avg time  |  max time  |%varavg| %total
---------------------------------------------------------------
Pair    | 1.331      | 11.925     | 24.454     | 229.9 | 32.20
Bond    | 0.050626   | 0.31864    | 0.63439    |  35.7 |  0.86
Neigh   | 0.010032   | 0.010055   | 0.010089   |   0.0 |  0.03
Comm    | 5.533      | 17.637     | 28.122     | 178.9 | 47.63
Output  | 0.051094   | 0.058717   | 0.064295   |   1.9 |  0.16
Modify  | 3.6667     | 4.7516     | 6.0352     |  38.9 | 12.83
Other   |            | 2.328      |            |       |  6.29

Nlocal:           18.5 ave          40 max           1 min
Histogram: 4 0 0 0 0 0 0 2 0 2
Nghost:          129.5 ave         147 max         108 min
Histogram: 2 0 2 0 0 0 0 0 0 4
Neighs:        560.875 ave        1609 max          33 min
Histogram: 4 0 0 0 1 2 0 0 0 1

Total # of neighbors = 4487
Ave neighs/atom = 30.317568
Ave special neighs/atom = 6
Neighbor list builds = 500
Dangerous builds = 0

#write_data last_config.${number}.* nocoeff
#write_restart last_config.${number}.*
Total wall time: 0:00:37
