LAMMPS (30 Mar 2026)
variable number	equal 2
variable ofreq	equal 1000
variable efreq	equal 1000
variable T      equal 0.1
variable rhos   equal 0.2
variable nsteps equal 10000

units lj

dimension 3

newton on

boundary  p p p

atom_style hybrid bond ellipsoid oxdna
WARNING: Atom style hybrid defines both, per-type and per-atom masses; both must be set, but only per-atom masses will be used (../atom_vec_hybrid.cpp:132)
atom_modify sort 0 1.0

# Pair interactions require lists of neighbours to be calculated
neighbor 2.0 bin
neigh_modify every 1 delay 0 check yes

read_data data.duplex2
Reading data file ...
  orthogonal box = (-20 -20 -20) to (20 20 20)
  1 by 2 by 2 MPI processor grid
  reading atoms ...
  16 atoms
  reading velocities ...
  16 velocities
  scanning bonds ...
  1 = max bonds/atom
  16 ellipsoids
  orthogonal box = (-20 -20 -20) to (20 20 20)
  1 by 2 by 2 MPI processor grid
  reading bonds ...
  13 bonds
Finding 1-2 1-3 1-4 neighbors ...
  special bond factors lj:    0        0        0       
  special bond factors coul:  0        0        0       
     2 = max # of 1-2 neighbors
     2 = max # of 1-3 neighbors
     4 = max # of 1-4 neighbors
     6 = max # of special neighbors
  special bonds CPU = 0.000 seconds
  read_data CPU = 0.001 seconds

set atom * mass 3.1575
Setting atom values ...
  16 settings made for mass

group all type 1 4
16 atoms in group all

# oxDNA3 bond interactions - FENE backbone
bond_style hybrid oxdna3/fene
bond_coeff * oxdna3/fene oxdna3_lj.cgdna
Reading oxdna3 potential (fene) file oxdna3_lj.cgdna with DATE: 2026-03-26
special_bonds lj 0 1 1
Finding 1-2 1-3 1-4 neighbors ...
  special bond factors lj:    0        1        1       
  special bond factors coul:  0        0        0       
     2 = max # of 1-2 neighbors
     2 = max # of 1-3 neighbors
     4 = max # of 1-4 neighbors
     6 = max # of special neighbors
  special bonds CPU = 0.000 seconds

# oxDNA3 pair interactions
pair_style hybrid/overlay oxdna3/excv oxdna3/stk oxdna3/hbond oxdna3/xstk oxdna3/coaxstk oxdna3/dh
pair_coeff * * oxdna3/excv     oxdna3_lj.cgdna
Reading oxdna3 potential (excv) file oxdna3_lj.cgdna with DATE: 2026-03-26
pair_coeff * * oxdna3/stk      ${T} oxdna3_lj.cgdna
pair_coeff * * oxdna3/stk      0.1 oxdna3_lj.cgdna
Reading oxdna3 potential (stk) file oxdna3_lj.cgdna with DATE: 2026-03-26
pair_coeff * * oxdna3/hbond    oxdna3_lj.cgdna
Reading oxdna3 potential (hbond) file oxdna3_lj.cgdna with DATE: 2026-03-26
pair_coeff 1 4 oxdna3/hbond    oxdna3_lj.cgdna
Reading oxdna3 potential (hbond) file oxdna3_lj.cgdna with DATE: 2026-03-26
pair_coeff 2 3 oxdna3/hbond    oxdna3_lj.cgdna
Reading oxdna3 potential (hbond) file oxdna3_lj.cgdna with DATE: 2026-03-26
pair_coeff * * oxdna3/xstk     oxdna3_lj.cgdna
Reading oxdna3 potential (xstk) file oxdna3_lj.cgdna with DATE: 2026-03-26
pair_coeff * * oxdna3/coaxstk  oxdna3_lj.cgdna
Reading oxdna potential (coaxstk) file oxdna3_lj.cgdna with DATE: 2026-03-26
pair_coeff * * oxdna3/dh       ${T} ${rhos} oxdna3_lj.cgdna #no_3p_charge
pair_coeff * * oxdna3/dh       0.1 ${rhos} oxdna3_lj.cgdna 
pair_coeff * * oxdna3/dh       0.1 0.2 oxdna3_lj.cgdna 
Reading oxdna potential (dh) file oxdna3_lj.cgdna with DATE: 2026-03-26

# NVE ensemble
fix 1 all nve/asphere
#fix 2 all langevin ${T} ${T} 2.5 457145 angmom 10

timestep 1e-5

#comm_style tiled
fix 3 all balance 1000 1.03 shift xyz 10 1.03
comm_modify cutoff 5.8

compute quat all property/atom quatw quati quatj quatk

compute erot all erotate/asphere
compute ekin all ke
compute epot all pe

compute ebond all bond
compute eexcv all pair oxdna3/excv
compute estk  all pair oxdna3/stk
compute ehbond all pair oxdna3/hbond
compute exstk all pair oxdna3/xstk
compute ecoaxstk all pair oxdna3/coaxstk
compute edh all pair oxdna3/dh

variable erot equal c_erot
variable ekin equal c_ekin
variable edyn equal c_erot+c_ekin
variable epot equal c_epot
variable etot equal c_erot+c_ekin+c_epot

variable ebond equal c_ebond[1]
variable eexcv equal c_eexcv
variable estk equal c_estk
variable ehbond equal c_ehbond
variable exstk equal c_exstk
variable ecoaxstk equal c_ecoaxstk
variable edh equal c_edh

fix 5 all print ${efreq} "$(step)  ekin = ${ekin} |  erot = ${erot} | edyn = ${edyn} | ebond = ${ebond} | eexcv = ${eexcv} | estk = ${estk} | ehbond = ${ehbond} | exstk = ${exstk} | ecoaxstk = ${ecoaxstk} | edh = ${edh} | epot = ${epot} | etot = ${etot}" screen yes
fix 5 all print 1000 "$(step)  ekin = ${ekin} |  erot = ${erot} | edyn = ${edyn} | ebond = ${ebond} | eexcv = ${eexcv} | estk = ${estk} | ehbond = ${ehbond} | exstk = ${exstk} | ecoaxstk = ${ecoaxstk} | edh = ${edh} | epot = ${epot} | etot = ${etot}" screen yes

#dump out all custom ${ofreq} out.${number}.lammpstrj id mol type x y z ix iy iz vx vy vz c_quat[1] c_quat[2] c_quat[3] c_quat[4] angmomx angmomy angmomz
#dump_modify out sort id
#dump_modify out format line "%d %d %d  %22.15le %22.15le %22.15le  %d %d %d  %22.15le %22.15le %22.15le  %22.15le %22.15le %22.15le %22.15le  %22.15le %22.15le %22.15le"

run ${nsteps}
run 10000
Parsing normal base pairing
Generated 0 of 6 mixed pair_coeff terms from geometric mixing rule
Neighbor list info ...
  update: every = 1 steps, delay = 0 steps, check = yes
  max neighbors/atom: 2000, page size: 100000
  master list distance cutoff = 5.6389877
  ghost atom cutoff = 5.8
  binsize = 2.8194939, bins = 15 15 15
  5 neighbor lists, perpetual/occasional/extra = 5 0 0
  (1) pair oxdna3/excv, perpetual
      attributes: half, newton on
      pair build: half/bin/newton
      stencil: half/bin/3d
      bin: standard
  (2) pair oxdna3/hbond, perpetual, copy from (1)
      attributes: half, newton on
      pair build: copy
      stencil: none
      bin: none
  (3) pair oxdna3/xstk, perpetual, copy from (1)
      attributes: half, newton on
      pair build: copy
      stencil: none
      bin: none
  (4) pair oxdna3/coaxstk, perpetual, copy from (1)
      attributes: half, newton on
      pair build: copy
      stencil: none
      bin: none
  (5) pair oxdna3/dh, perpetual, copy from (1)
      attributes: half, newton on
      pair build: copy
      stencil: none
      bin: none
0  ekin = 2.70475393009871 |  erot = 2.80172072918779 | edyn = 5.5064746592865 | ebond = 2.23098437840829 | eexcv = 0 | estk = -14.8372527644268 | ehbond = -3.88946632096048 | exstk = -2.25579045793716 | ecoaxstk = -0.202990425922979 | edh = 0.374380973410841 | epot = -18.5801346174283 | etot = -13.0736599581418
Per MPI rank memory allocation (min/avg/max) = 8.818 | 8.847 | 8.932 Mbytes
   Step          Temp          E_pair         E_mol          TotEng         Press          Volume    
         0   0.12021129    -1.3006949      0.13943652    -0.99221129    -0.00014882344  64000        
1000  ekin = 2.73507948060637 |  erot = 2.81539491906251 | edyn = 5.55047439966888 | ebond = 2.09823937335388 | eexcv = 0 | estk = -14.7284945030397 | ehbond = -3.86812603178772 | exstk = -2.29493498930628 | ecoaxstk = -0.204752526885265 | edh = 0.373934319399222 | epot = -18.6241343582659 | etot = -13.073659958597
2000  ekin = 2.79200062628541 |  erot = 2.86097307241268 | edyn = 5.6529736986981 | ebond = 1.9233195173024 | eexcv = 0 | estk = -14.625874189919 | ehbond = -3.84022971469772 | exstk = -2.35142266947728 | ecoaxstk = -0.205897505489684 | edh = 0.373470902993983 | epot = -18.7266336592873 | etot = -13.0736599605892
3000  ekin = 2.86426907053549 |  erot = 2.93304155447347 | edyn = 5.79731062500895 | ebond = 1.72212452144504 | eexcv = 0 | estk = -14.5261790474047 | ehbond = -3.8138640837259 | exstk = -2.41953109228271 | ecoaxstk = -0.206517183161635 | edh = 0.372996298981721 | epot = -18.8709705861482 | etot = -13.0736599611393
4000  ekin = 2.94455196560367 |  erot = 3.02737698868057 | edyn = 5.97192895428424 | ebond = 1.50949559179148 | eexcv = 0 | estk = -14.4257273133404 | ehbond = -3.79651954459977 | exstk = -2.49865667931184 | ecoaxstk = -0.206695873533723 | edh = 0.372514902812911 | epot = -19.0455889161814 | etot = -13.0736599618971
5000  ekin = 3.02525208413169 |  erot = 3.13768383092315 | edyn = 6.16293591505485 | ebond = 1.29918685594747 | eexcv = 0 | estk = -14.3213791146491 | ehbond = -3.79290717260927 | exstk = -2.58701517384602 | ecoaxstk = -0.206511494661312 | edh = 0.372030221998328 | epot = -19.23659587782 | etot = -13.0736599627651
6000  ekin = 3.09931343684678 |  erot = 3.25610624975885 | edyn = 6.35541968660563 | ebond = 1.1037473094074 | eexcv = 0 | estk = -14.2117634220681 | ehbond = -3.80527193113069 | exstk = -2.68130117700485 | ecoaxstk = -0.206035572814697 | edh = 0.371545143392542 | epot = -19.4290796502184 | etot = -13.0736599636127
7000  ekin = 3.16137820588128 |  erot = 3.37403315004154 | edyn = 6.53541135592282 | ebond = 0.934207088102301 | eexcv = 0 | estk = -14.0983402803286 | ehbond = -3.83389508592828 | exstk = -2.77677330573625 | ecoaxstk = -0.205332138566451 | edh = 0.371062402197287 | epot = -19.60907132026 | etot = -13.0736599643372
8000  ekin = 3.06686721635731 |  erot = 3.55671328753753 | edyn = 6.62358050389484 | ebond = 0.799860968300799 | eexcv = 0.0860001521964821 | estk = -14.0059740659102 | ehbond = -3.87803276502304 | exstk = -2.86522098196099 | ecoaxstk = -0.204455944065169 | edh = 0.370582168697559 | epot = -19.6972404677646 | etot = -13.0736599638697
9000  ekin = 3.09254867864153 |  erot = 3.82947364303652 | edyn = 6.92202232167805 | ebond = 0.707858110196315 | eexcv = 0 | estk = -13.9972434271362 | ehbond = -3.93796688447202 | exstk = -2.9349825453548 | ecoaxstk = -0.203450513610586 | edh = 0.370102898629361 | epot = -19.995682361748 | etot = -13.0736600400699
10000  ekin = 3.1612659471046 |  erot = 3.93928460848764 | edyn = 7.10055055559224 | ebond = 0.662270123627284 | eexcv = 0 | estk = -14.008842425676 | ehbond = -4.00767187925186 | exstk = -2.98726056513993 | ecoaxstk = -0.202346387332974 | edh = 0.369640536830814 | epot = -20.1742105969426 | etot = -13.0736600413504
     10000   0.14050071    -1.30228        0.041391883   -1.063309      -8.4197027e-05  64000        
Loop time of 0.0800312 on 4 procs for 10000 steps with 16 atoms

Performance: 107957.829 tau/day, 124951.191 timesteps/s, 1.999 Matom-step/s
99.9% CPU use with 4 MPI tasks x no OpenMP threads

MPI task timing breakdown:
Section |  min time  |  avg time  |  max time  |%varavg| %total
---------------------------------------------------------------
Pair    | 0.018168   | 0.030655   | 0.041383   |   4.7 | 38.30
Bond    | 0.000612   | 0.0012917  | 0.001721   |   1.2 |  1.61
Neigh   | 2.4e-05    | 2.45e-05   | 2.5e-05    |   0.0 |  0.03
Comm    | 0.018208   | 0.028184   | 0.041704   |   5.1 | 35.22
Output  | 7e-06      | 9.25e-06   | 1e-05      |   0.0 |  0.01
Modify  | 0.013235   | 0.014168   | 0.015905   |   0.9 | 17.70
Other   |            | 0.005699   |            |       |  7.12

Nlocal:              4 ave           4 max           4 min
Histogram: 4 0 0 0 0 0 0 0 0 0
Nghost:             12 ave          12 max          12 min
Histogram: 4 0 0 0 0 0 0 0 0 0
Neighs:             30 ave          47 max          16 min
Histogram: 1 0 1 0 0 1 0 0 0 1

Total # of neighbors = 120
Ave neighs/atom = 7.5
Ave special neighs/atom = 3.75
Neighbor list builds = 10
Dangerous builds = 0

#write_data last_config.${number}.* nocoeff
#write_restart last_config.${number}.*
Total wall time: 0:00:00
