LAMMPS (11 Feb 2026 - Development - patch_10Dec2025-1372-ged4f75871d-modified)
# LAMMPS input file in real units via oxdna lj2real.py, date 2024-05-19
variable number	equal 1
variable ofreq	equal 1000
variable efreq	equal 1000
variable T      equal 300.0
variable rhos   equal 0.2

units real

dimension 3

newton on

boundary  p p p

atom_style hybrid bond ellipsoid oxdna
WARNING: Atom style hybrid defines both, per-type and per-atom masses; both must be set, but only per-atom masses will be used (../atom_vec_hybrid.cpp:132)
atom_modify sort 0 8.518

# Pair interactions require lists of neighbours to be calculated
neighbor 17.036 bin
neigh_modify every 1 delay 0 check yes

read_data data.duplex1
Reading data file ...
  orthogonal box = (-170 -170 -170) to (170 170 170)
  1 by 2 by 2 MPI processor grid
  reading atoms ...
  10 atoms
  reading velocities ...
  10 velocities
  scanning bonds ...
  1 = max bonds/atom
  10 ellipsoids
  orthogonal box = (-170 -170 -170) to (170 170 170)
  1 by 2 by 2 MPI processor grid
  reading bonds ...
  8 bonds
Finding 1-2 1-3 1-4 neighbors ...
  special bond factors lj:    0        0        0       
  special bond factors coul:  0        0        0       
     2 = max # of 1-2 neighbors
     2 = max # of 1-3 neighbors
     2 = max # of 1-4 neighbors
     4 = max # of special neighbors
  special bonds CPU = 0.000 seconds
  read_data CPU = 0.001 seconds

set atom * mass 315.75
Setting atom values ...
  10 settings made for mass

group all type 1 4
10 atoms in group all

# oxDNA2 bond interactions - FENE backbone
bond_style oxdna2/fene
bond_coeff * 11.923225551844991 2.1295 6.4430152
special_bonds lj 0 1 1
Finding 1-2 1-3 1-4 neighbors ...
  special bond factors lj:    0        1        1       
  special bond factors coul:  0        0        0       
     2 = max # of 1-2 neighbors
     2 = max # of 1-3 neighbors
     2 = max # of 1-4 neighbors
     4 = max # of special neighbors
  special bonds CPU = 0.000 seconds

# oxDNA2 pair interactions
pair_style hybrid/overlay oxdna2/excv oxdna2/stk oxdna2/hbond oxdna2/xstk oxdna2/coaxstk oxdna2/dh
pair_coeff * * oxdna2/excv 11.923225551844991 5.9626 5.74965 11.923225551844991 4.38677 4.259 11.923225551844991 2.81094 2.72576
pair_coeff * * oxdna2/stk seqav ${T} 8.061888956879992 0.005309213617811 0.70439070204273 3.4072 7.6662 2.72576 6.3885 1.3 0.0 0.8 0.9 0.0 0.95 0.9 0.0 0.95 2.0 0.65 2.0 0.65
pair_coeff * * oxdna2/stk seqav 300 8.061888956879992 0.005309213617811 0.70439070204273 3.4072 7.6662 2.72576 6.3885 1.3 0.0 0.8 0.9 0.0 0.95 0.9 0.0 0.95 2.0 0.65 2.0 0.65
pair_coeff * * oxdna2/hbond seqav 0.0 0.93918760272364 3.4072 6.3885 2.89612 5.9626 1.5 0.0 0.7 1.5 0.0 0.7 1.5 0.0 0.7 0.46 3.141592654 0.7 4.0 1.570796327 0.45 4.0 1.570796327 0.45
pair_coeff 1 4 oxdna2/hbond seqav 6.365810122130042 0.93918760272364 3.4072 6.3885 2.89612 5.9626 1.5 0.0 0.7 1.5 0.0 0.7 1.5 0.0 0.7 0.46 3.141592654 0.7 4.0 1.570796327 0.45 4.0 1.570796327 0.45
pair_coeff 2 3 oxdna2/hbond seqav 6.365810122130042 0.93918760272364 3.4072 6.3885 2.89612 5.9626 1.5 0.0 0.7 1.5 0.0 0.7 1.5 0.0 0.7 0.46 3.141592654 0.7 4.0 1.570796327 0.45 4.0 1.570796327 0.45
pair_coeff * * oxdna2/xstk 3.902852173937567 4.89785 5.74965 4.21641 5.57929 2.25 0.791592654 0.58 1.7 1.0 0.68 1.7 1.0 0.68 1.5 0.0 0.65 1.7 0.875 0.68 1.7 0.875 0.68
pair_coeff * * oxdna2/coaxstk 4.806670572112583 3.4072 5.1108 1.87396 4.94044 2.0 2.891592653589793 0.65 1.3 0.0 0.8 0.9 0.0 0.95 0.9 0.0 0.95 40.0 3.116592653589793
pair_coeff * * oxdna2/dh ${T} ${rhos} 0.815
pair_coeff * * oxdna2/dh 300 ${rhos} 0.815
pair_coeff * * oxdna2/dh 300 0.2 0.815

# NVE ensemble
fix 1 all nve/asphere
#fix 2 all langevin ${T} ${T} 4265.0 457145 angmom 10

timestep 0.017055

#comm_style tiled
fix 3 all balance 1000 1.03 shift xyz 10 1.03
comm_modify cutoff 32.4

compute quat all property/atom quatw quati quatj quatk

compute erot all erotate/asphere
compute ekin all ke
compute epot all pe
variable erot equal c_erot
variable ekin equal c_ekin
variable epot equal c_epot
variable etot equal c_erot+c_ekin+c_epot
fix 5 all print ${efreq} "$(step)  ekin = ${ekin} |  erot = ${erot} | epot = ${epot} | etot = ${etot}" screen yes
fix 5 all print 1000 "$(step)  ekin = ${ekin} |  erot = ${erot} | epot = ${epot} | etot = ${etot}" screen yes

dump out all custom ${ofreq} out.${number}.lammpstrj id mol type x y z ix iy iz vx vy vz c_quat[1] c_quat[2] c_quat[3] c_quat[4] angmomx angmomy angmomz
dump out all custom 1000 out.${number}.lammpstrj id mol type x y z ix iy iz vx vy vz c_quat[1] c_quat[2] c_quat[3] c_quat[4] angmomx angmomy angmomz
dump out all custom 1000 out.1.lammpstrj id mol type x y z ix iy iz vx vy vz c_quat[1] c_quat[2] c_quat[3] c_quat[4] angmomx angmomy angmomz
dump_modify out sort id
dump_modify out format line "%d %d %d  %22.15le %22.15le %22.15le  %d %d %d  %22.15le %22.15le %22.15le  %22.15le %22.15le %22.15le %22.15le  %22.15le %22.15le %22.15le"

run 10000
Generated 0 of 6 mixed pair_coeff terms from geometric mixing rule
Neighbor list info ...
  update: every = 1 steps, delay = 0 steps, check = yes
  max neighbors/atom: 2000, page size: 100000
  master list distance cutoff = 48.032697
  ghost atom cutoff = 48.032697
  binsize = 24.016348, bins = 15 15 15
  5 neighbor lists, perpetual/occasional/extra = 5 0 0
  (1) pair oxdna2/excv, perpetual
      attributes: half, newton on
      pair build: half/bin/newton
      stencil: half/bin/3d
      bin: standard
  (2) pair oxdna2/hbond, perpetual, copy from (1)
      attributes: half, newton on
      pair build: copy
      stencil: none
      bin: none
  (3) pair oxdna2/xstk, perpetual, copy from (1)
      attributes: half, newton on
      pair build: copy
      stencil: none
      bin: none
  (4) pair oxdna2/coaxstk, perpetual, copy from (1)
      attributes: half, newton on
      pair build: copy
      stencil: none
      bin: none
  (5) pair oxdna2/dh, perpetual, copy from (1)
      attributes: half, newton on
      pair build: copy
      stencil: none
      bin: none
WARNING: Communication cutoff adjusted to 48.03269686950012 (../comm.cpp:703)
0  ekin = 6.60866429763474 |  erot = 16.7863306740876 | epot = -73.3212547779551 | etot = -49.9262598062327
Per MPI rank memory allocation (min/avg/max) = 8.693 | 8.694 | 8.695 Mbytes
   Step          Temp          E_pair         E_mol          TotEng         Press          Volume    
         0   246.3411      -79.707702      6.3864468     -66.71259      -0.044059745    39304000     
1000  ekin = 6.41708770758035 |  erot = 17.3294677240795 | epot = -73.6728152392261 | etot = -49.9262598075663
2000  ekin = 6.281344492129 |  erot = 17.8498950887022 | epot = -74.0574993901172 | etot = -49.926259809286
3000  ekin = 6.20505087560997 |  erot = 18.318483100653 | epot = -74.4497937873471 | etot = -49.9262598110842
4000  ekin = 6.18696655267216 |  erot = 18.7084177933481 | epot = -74.8216441586695 | etot = -49.9262598126493
5000  ekin = 6.22222390109172 |  erot = 18.9985160905815 | epot = -75.1469998054518 | etot = -49.9262598137786
6000  ekin = 6.3036836863115 |  erot = 19.1750583413004 | epot = -75.4050018420268 | etot = -49.9262598144149
7000  ekin = 6.42298764370767 |  erot = 19.2320339522245 | epot = -75.5812814105226 | etot = -49.9262598145904
8000  ekin = 6.57126116343565 |  erot = 19.1704164533399 | epot = -75.6679374311501 | etot = -49.9262598143746
9000  ekin = 6.73965036809113 |  erot = 18.9970898465911 | epot = -75.663000028474 | etot = -49.9262598137918
10000  ekin = 6.91983013483158 |  erot = 18.7241128484793 | epot = -75.5702027961995 | etot = -49.9262598128885
     10000   257.93996     -77.687096      2.1168928     -68.650373     -0.017906473    39304000     
Loop time of 0.0629667 on 4 procs for 10000 steps with 10 atoms

Performance: 234.021 ns/day, 0.103 hours/ns, 158813.977 timesteps/s, 1.588 Matom-step/s
99.8% CPU use with 4 MPI tasks x no OpenMP threads

MPI task timing breakdown:
Section |  min time  |  avg time  |  max time  |%varavg| %total
---------------------------------------------------------------
Pair    | 0.010377   | 0.017798   | 0.032959   |   6.7 | 28.26
Bond    | 0.000542   | 0.0010195  | 0.001751   |   1.6 |  1.62
Neigh   | 1.8e-05    | 1.875e-05  | 1.9e-05    |   0.0 |  0.03
Comm    | 0.010865   | 0.028112   | 0.035905   |   6.1 | 44.65
Output  | 0.000243   | 0.00025    | 0.000255   |   0.0 |  0.40
Modify  | 0.010661   | 0.020567   | 0.049717   |  11.7 | 32.66
Other   |            | -0.004797  |            |       | -7.62

Nlocal:            2.5 ave           3 max           2 min
Histogram: 2 0 0 0 0 0 0 0 0 2
Nghost:            7.5 ave           8 max           7 min
Histogram: 2 0 0 0 0 0 0 0 0 2
Neighs:          11.25 ave          24 max           5 min
Histogram: 1 1 1 0 0 0 0 0 0 1

Total # of neighbors = 45
Ave neighs/atom = 4.5
Ave special neighs/atom = 3.6
Neighbor list builds = 10
Dangerous builds = 0

write_data last_config.${number}.* nocoeff
write_data last_config.1.* nocoeff
System init for write_data ...
Generated 0 of 6 mixed pair_coeff terms from geometric mixing rule
#write_restart last_config.${number}.*
Total wall time: 0:00:00
