LAMMPS data file via write_data, version 30 Mar 2026, timestep = 10000, units = real

240 atoms
4 atom types
180 bonds
1 bond types
120 angles
1 angle types
60 dihedrals
1 dihedral types

-7.783627779210596 47.783627779212054 xlo xhi
-4.500434571607464 44.50043457160616 ylo yhi
-8.614630677632258 48.61463067764245 zlo zhi

Masses

1 59.0448
2 59.0448
3 59.0448
4 59.0448

Atoms # full

8 2 4 0 7.4236547873698395 -3.248567366725421 -1.608556203616626 0 0 0
45 12 1 0 14.398744491867776 -3.8293368581612413 -3.299571072073532 0 0 0
47 12 3 0 17.932056356188966 0.1657909819681465 -2.0286720224513384 0 0 0
46 12 2 0 16.03453027021383 -2.4196756314438748 0.20261878088249927 0 0 0
18 5 2 0 26.863882253057092 7.354524419067787 -8.137929350287294 0 0 0
3 1 3 0 6.631037072889329 19.24263567826701 -7.788381132573646 0 0 0
4 1 4 0 6.820703466658047 16.451845101852033 -5.086224583683611 0 0 0
19 5 3 0 27.187519317174676 10.82071700936435 -7.413134154804637 0 0 0
20 5 4 0 27.133004224972318 10.760383942750671 -3.862358374088302 0 0 0
36 9 4 0 28.084116200057895 10.022974502928365 -1.1685529943886952 0 0 0
80 20 4 0 30.562980476301128 10.955533665598914 -5.441889507333693 0 0 1
165 42 1 0 47.345039657357574 19.462183116537542 0.23589052594009163 0 0 0
7 2 3 0 4.33972713061894 -3.925254509128335 1.062865745102345 0 0 0
6 2 2 0 6.933008720913177 -4.129825841743623 4.325532039655686 0 0 0
48 12 4 0 19.56791327329414 1.575596242965951 1.4736020167465314 0 0 0
9 3 1 0 29.285983795327876 -1.5115631121068176 0.9705455321445667 0 0 0
10 3 2 0 29.646827251005277 -1.6560651690824693 5.170822673519755 0 0 0
11 3 3 0 30.055270927299144 1.9627418850540417 5.393979802753589 0 0 0
12 3 4 0 30.416484452206728 1.8175678610840564 9.594768515210685 0 0 0
139 35 3 0 39.60174641796187 -4.078957070283856 6.439285554625902 0 1 0
34 9 2 0 25.529276891319025 12.33116500048384 3.3267265202941303 0 0 0
33 9 1 0 26.90232387240851 14.251657537724345 6.61999332699172 0 0 0
35 9 3 0 29.32291242980321 12.052530079453197 1.7516361907986282 0 0 0
152 38 4 0 32.339980794726564 18.917115027597777 7.870062790531073 0 0 0
166 42 2 0 45.633274153504196 18.5116085412871 3.9120541179533044 0 0 0
38 10 2 0 -0.22851552088718835 -3.6199015252854996 15.034588601157795 0 0 0
40 10 4 0 -0.9001185585658751 1.0472941960124533 17.584008691412272 0 0 0
43 11 3 0 -5.511356542208143 -1.773680043774533 10.736177717840615 0 0 0
44 11 4 0 -3.5162471316292687 -1.627261145822509 14.414068996820568 0 0 0
21 6 1 0 0.38157472967014827 6.979278450009317 18.09973729807092 0 0 0
39 10 3 0 1.9120450126120216 -0.5222480427657442 15.117124658731456 0 0 0
22 6 2 0 4.04520847681509 6.921994808589621 16.200768386194817 0 0 0
111 28 3 0 25.121119040699007 -3.4802346827404462 16.141177210481658 0 1 0
16 4 4 0 30.52663760321821 -2.936298898686605 13.610983495803627 0 0 0
15 4 3 0 33.55777511964239 -0.4906303510941985 13.452406433947644 0 0 0
14 4 2 0 34.51533245107888 -1.1080039911031028 17.493409401700312 0 0 0
13 4 1 0 37.54768340398636 1.3398046497848728 17.334503264693904 0 0 0
140 35 4 0 39.71188417835679 -3.2560263371092826 10.544287635606238 0 1 0
23 6 3 0 3.3674693012328043 10.190472510152569 14.478197243744296 0 0 0
24 6 4 0 7.021470506913993 10.121102748384326 12.579004363998937 0 0 0
30 8 2 0 7.961879119392594 16.39368627965126 13.024993937581238 0 0 0
29 8 1 0 9.278107690671607 12.975308770849773 12.634554802302054 0 0 0
31 8 3 0 11.618398886388961 17.65720888641511 11.80441419989774 0 0 0
92 23 4 0 25.834431777413332 9.19000052386033 19.64678336463993 0 0 0
52 13 4 0 31.20498218249464 14.217939795813816 19.787611978190515 0 0 0
50 13 2 0 35.34610984877398 10.900535907003604 17.928227664349077 0 0 0
49 13 1 0 37.902800645979276 10.699009864778835 14.62321743084223 0 0 0
51 13 3 0 33.574995858553976 14.185415113312104 16.7645419348791 0 0 0
25 7 1 0 35.00854908281525 12.861207934586242 14.536750610997624 0 0 0
26 7 2 0 36.013202915493046 16.511215180323422 14.621561148588308 0 0 0
71 18 3 0 35.41643512995117 19.4172332655196 19.35069646701477 0 0 0
69 18 1 0 38.79215590622676 15.210633686454361 19.160082638630357 0 0 0
85 22 1 0 42.14464911183654 11.631110084916289 18.080006514254844 0 0 0
27 7 3 0 39.91102537904497 15.58078284097749 15.368624516834767 0 0 0
28 7 4 0 41.08178123077172 19.063610770339032 15.177908841665074 0 0 0
53 14 1 0 -3.807708710314078 -3.2010831466800433 24.319570422619588 0 0 0
55 14 3 0 1.1345167780660823 -3.2027356847932307 25.844291318818055 0 0 0
224 56 4 0 3.921124125075414 -2.62318401632573 25.72742373355982 0 1 0
91 23 3 0 24.644200420669524 7.064294508315348 22.844514991686104 0 0 0
90 23 2 0 28.43360455241505 7.063855826094915 24.46436602098516 0 0 0
89 23 1 0 27.243522447633595 4.938351249949422 27.66210932183606 0 0 0
70 18 2 0 38.761794910924024 18.2947949218239 21.39096261330174 0 0 0
86 22 2 0 44.179398129915995 10.82545482196422 21.626620607699603 0 0 0
88 22 4 0 45.68035422972583 13.401914795354626 26.64427413562131 0 0 0
87 22 3 0 43.64544867080164 14.207919011740454 23.09710625847861 0 0 0
75 19 3 0 -3.8038981961510094 -1.0258960666182086 38.8585933289576 0 0 0
76 19 4 0 -0.691691504701829 0.7703970448527171 38.07771778436221 0 0 0
93 24 1 0 0.34791915546261337 0.058835956318402056 35.28701629803324 0 0 0
81 21 1 0 13.569701705262235 4.0156057933832265 36.914622908611186 0 0 0
63 16 3 0 20.823512669115757 -4.399359808073209 30.891787095704228 0 0 0
64 16 4 0 20.68506015254506 -0.7856517309461519 30.39096966669832 0 0 0
62 16 2 0 20.15817631807378 -4.059368557906713 35.03724188567252 0 0 0
198 50 2 0 -0.8243343057070138 19.954181980037518 37.02967861443089 0 0 0
188 47 4 0 19.59371667519331 19.070233673627285 38.78669578040942 0 0 0
65 17 1 0 29.894644728608352 11.814626349541909 32.62858172007184 0 0 0
66 17 2 0 31.698347547221307 11.592949534204104 36.409619864240966 0 0 0
67 17 3 0 33.4541214060825 14.851903371274972 35.88670120124945 0 0 0
74 19 2 0 -4.9432358965267085 1.2185106300166646 41.97040087725653 0 0 0
94 24 2 0 1.329381507488433 0.28748531532091165 40.03438262990564 0 0 0
95 24 3 0 1.3544780839704436 4.012541460827247 39.15854593824984 0 0 0
96 24 4 0 1.84496246033366 4.345252167719569 43.31930591024355 0 0 0
82 21 2 0 14.27388107634118 3.976753770897314 41.07095269356112 0 0 0
83 21 3 0 14.747665678052362 7.593389585165474 41.12565673217346 0 0 0
84 21 4 0 15.452043961201518 7.554391565069869 45.28199533422154 0 0 0
17 5 1 0 26.95664023316964 7.560838916857864 45.00083939971734 0 0 -1
73 19 1 0 46.98031892076467 -0.43719935374425684 42.28950339572322 -1 0 0
2 1 2 0 2.739758010241425 18.44006718908959 48.47043420014589 0 0 -1
77 20 1 0 28.38122197247912 9.012232287251463 42.72128760737215 0 0 0
79 20 3 0 29.06836632755127 11.68875626493289 47.73962780602076 0 0 0
78 20 2 0 30.06588874843545 8.32619421358672 46.604106284576744 0 0 0
68 17 4 0 35.258239406453626 14.629886415680447 39.66773987835171 0 0 0
57 15 1 0 40.99185452527794 9.841912007630794 42.561728936284304 0 0 0
58 15 2 0 40.0507807221912 13.376688748881602 42.30143333663952 0 0 0
59 15 3 0 42.035737523648656 14.054580782406722 45.90740620225966 0 0 0
60 15 4 0 41.09534097913746 17.58934166670669 45.647235438353775 0 0 0
180 45 4 0 21.573227955356618 24.08687706345577 -7.581506039447526 0 0 1
97 25 1 0 47.243686880599284 36.51272906043491 -2.8792866148266603 0 0 0
98 25 2 0 46.177412362355476 38.33661909728612 0.5963652489877589 0 0 0
99 25 3 0 46.45970833817288 41.50463934533005 -1.451800983527745 0 0 0
124 31 4 0 -6.945203569629032 26.52110267830126 9.875625579018168 1 0 0
123 31 3 0 -7.732925211247991 28.834730126387374 6.715668151269378 1 0 0
141 36 1 0 -3.0033693064055815 32.01379957099156 9.425309337990775 0 0 0
130 33 2 0 2.9485859575981395 28.735322539111813 9.969713599793847 0 0 0
129 33 1 0 4.281263297858143 28.794793539992078 5.979058544838412 0 0 0
149 38 1 0 35.62470274572678 25.145688930634336 2.6874074588238996 0 0 0
150 38 2 0 35.99202818474855 22.04070203066901 4.85409635074339 0 0 0
151 38 3 0 31.97259435955462 22.0218750336884 5.702863606391825 0 0 0
167 42 3 0 46.36004497415112 21.81369858177522 5.5312960923147125 0 0 0
122 31 2 0 45.35083215058147 26.413477864582056 4.856440744130934 0 0 0
168 42 4 0 44.647856470909176 20.863567683328537 9.207138395831961 0 0 0
121 31 1 0 44.56310880381603 28.726033670696605 1.6962729612289715 0 0 0
164 41 4 0 -5.023082646890991 34.16568876758941 8.801049573319238 0 0 0
162 41 2 0 -5.939645564735478 38.606536914447915 6.668690072843953 0 0 0
131 33 3 0 2.30906058679409 32.331187591766835 9.913961889558148 0 0 0
5 2 1 0 3.8486943897173598 44.194250630464715 6.997755506350955 0 -1 0
128 32 4 0 14.150610489638973 32.73554868411736 8.722163313348135 0 0 0
117 30 1 0 18.980106843224746 35.46439686415178 3.3165746957837237 0 0 0
118 30 2 0 18.498369103341485 36.870082399577974 7.173261119775178 0 0 0
120 30 4 0 19.851189282078735 41.50221795718818 9.64467750299539 0 0 0
119 30 3 0 20.307156853450213 39.96928752111269 5.982160749149748 0 0 0
109 28 1 0 26.319698389506197 44.45726442789226 10.35415846527423 0 0 0
163 41 3 0 47.67393221127882 36.24179901189872 9.158581486631254 -1 0 0
100 25 4 0 45.39324742147687 43.327922726436 2.0245746546043883 0 0 0
137 35 1 0 39.94017791698826 40.55798270271703 3.1859457325461538 0 0 0
138 35 2 0 40.05067992605301 41.380862313090645 7.291147694225116 0 0 0
161 41 1 0 46.50481463427379 40.86000870453867 6.914685844790206 -1 0 0
41 11 1 0 46.54060985335753 43.890375021038075 8.026301868635672 -1 -1 0
142 36 2 0 -2.456540227017455 29.723649030608556 12.238956110594394 0 0 0
143 36 3 0 -5.089312010661618 31.24673420633931 14.959790943823243 0 0 0
144 36 4 0 -4.288121477889693 28.687597062564198 17.849948537665576 0 0 0
155 39 3 0 0.2802900815484982 30.87240612028681 18.61901599148738 0 0 0
154 39 2 0 2.70378155225039 27.93894193171902 18.826701687394 0 0 0
153 39 1 0 4.846409175709421 29.049285699648173 15.464034249843403 0 0 0
32 8 4 0 10.311373530285335 21.088243444677488 12.195185532402277 0 0 0
145 37 1 0 33.52217819303932 21.922814556902928 13.148894169238222 0 0 0
146 37 2 0 33.067031941120426 24.408607257979778 16.27847860969744 0 0 0
147 37 3 0 33.32257575350073 22.362292201644518 19.14348374482911 0 0 0
102 26 2 0 36.348750738966025 23.882586175341785 18.881154916031843 0 0 0
113 29 1 0 35.655244289821084 27.879976102204097 12.253054456835429 0 0 0
114 29 2 0 35.23855780153626 25.585145526953298 14.708320515952037 0 0 0
115 29 3 0 38.26435556288885 24.271225376572385 13.954831481513901 0 0 0
116 29 4 0 37.261809378723115 20.923990407398012 17.57860087001376 0 0 0
101 26 1 0 38.90699377484216 22.396257879156135 15.928062064820393 0 0 0
105 27 1 0 -6.421372609078091 37.55304073799633 16.17817280382897 0 0 0
106 27 2 0 -3.2208570270534524 38.750163541665145 18.417271515794088 0 0 0
107 27 3 0 -2.884767467644299 41.68742897549476 15.95741292944087 0 0 0
42 11 2 0 -7.026616662011342 43.94387377106891 11.673027250363631 0 -1 0
132 33 4 0 0.9783116869958638 32.2718699044682 13.90394203977647 0 0 0
108 27 4 0 0.3179259643553714 42.88276123148237 18.19977879278722 0 0 0
37 10 1 0 2.578281190836161 43.812137638273946 12.569988480784204 0 -1 0
221 56 1 0 6.078382890703001 40.95367989437234 18.91595144481349 0 0 0
126 32 2 0 14.386812021244552 34.959558768681646 14.167123152162826 0 0 0
135 34 3 0 14.30295400466065 42.026636497000126 14.656008779275412 0 0 0
136 34 4 0 12.58829772135474 43.815558946805304 17.87383121126822 0 0 0
134 34 2 0 15.023415458694327 39.152558620427435 17.112913673140152 0 0 0
125 32 1 0 17.39957727238367 36.23240167954977 16.705835976025966 0 0 0
127 32 3 0 17.128142200192183 34.019028160830224 11.209199505097896 0 0 0
133 34 1 0 16.744949130687306 37.396273839812295 13.841228140269697 0 0 0
160 40 4 0 19.480608200956897 43.173729901359984 14.064097432220953 0 0 0
159 40 3 0 19.525475925331705 39.89209723857756 12.167600511025416 0 0 0
157 40 1 0 21.088689692886074 35.147149931197355 13.285040588658493 0 0 0
158 40 2 0 21.021426339022636 38.30280298961627 15.372211510898644 0 0 0
110 28 2 0 27.4170644715465 43.0722904298168 14.092639373957677 0 0 0
112 28 4 0 26.220871646593718 44.13813703575768 19.87993436780408 0 0 0
156 39 4 0 -1.8622337088453034 29.761797327297266 21.981114307861752 0 0 0
236 59 4 0 4.795854293279484 29.51300985850274 23.578426787590875 0 0 0
148 37 4 0 33.42720383185409 25.144480255464472 21.931156395988495 0 0 0
209 53 1 0 35.42140901953931 24.775275748212657 28.689299522171478 0 0 0
72 18 4 0 35.45479510063381 22.520349257487112 21.609821526840463 0 0 0
104 26 4 0 37.09232212732723 27.171001918685924 23.463704811919424 0 0 0
103 26 3 0 39.3226996131082 26.040902956781732 20.177583205040484 0 0 0
229 58 1 0 45.55553253248165 20.905340302389096 20.235021342074383 0 0 0
230 58 2 0 44.5213932266772 23.954201458873005 22.26833729618487 0 0 0
231 58 3 0 47.68983647880664 25.725617548977887 20.553848097462637 0 0 0
232 58 4 0 46.65605173329312 28.77407832131163 22.587346578596296 0 0 0
54 14 2 0 -0.41470380637049725 44.161106249020094 22.942082554154208 0 -1 0
234 59 2 0 2.541541235274932 32.42315273578536 28.005134133711326 0 0 0
235 59 3 0 5.938620350646256 32.52278252946814 25.640078123884418 0 0 0
223 56 3 0 3.006396951937649 42.901276274723635 23.518877505096352 0 0 0
56 14 4 0 5.534444063407956 44.261634341422294 24.423496586800464 0 -1 0
222 56 2 0 6.188232803164728 44.09471810426155 21.024614704520072 0 0 0
218 55 2 0 -1.6170983777668517 23.959899241641537 37.51745060198391 0 0 0
219 55 3 0 -3.6113107596332257 26.17554229149338 36.31745029537734 0 0 0
220 55 4 0 -6.964355348156827 25.37987334168268 38.57272829291369 0 0 0
173 44 1 0 -1.8902024859042306 29.854462033615015 35.17000876881749 0 0 0
197 50 1 0 2.9776821385067582 21.05717205346073 36.07559396048731 0 0 0
217 55 1 0 1.8475759876703322 24.323412596163323 35.9561879479436 0 0 0
174 44 2 0 2.1967334221177035 29.552550124391185 35.197204776373525 0 0 0
175 44 3 0 2.5135052957083945 32.13921518520974 38.14610825512576 0 0 0
176 44 4 0 6.602617921861017 31.84062381359628 38.17261953368635 0 0 0
186 47 2 0 21.551314550720992 23.945943862300158 38.307057648028675 0 0 0
216 54 4 0 24.453134926157087 22.46162490446967 38.44962598527901 0 0 0
214 54 2 0 26.030553235430688 20.554373662646636 33.08813978827667 0 0 0
215 54 3 0 27.67738987929306 22.823294439327015 35.919771783494824 0 0 0
213 54 1 0 29.296151633559468 20.894581878798284 30.561443022825788 0 0 0
210 53 2 0 35.67163417632868 24.776759994970543 32.901494634640315 0 0 0
211 53 3 0 39.01219621856044 26.886809101546252 32.79335594881327 0 0 0
212 53 4 0 39.26253805990599 26.88907079546296 37.00430236739171 0 0 0
181 46 1 0 39.29196666743381 31.35218968457189 30.95862516864919 0 0 0
225 57 1 0 45.75949329190874 24.522095676572683 30.520723852094584 0 0 0
205 52 1 0 42.79491608522002 24.429046322486503 35.88053713396856 0 0 0
226 57 2 0 45.42037628659531 24.24903859448324 34.51642687417967 0 0 0
227 57 3 0 45.30471437574482 27.894373269679452 35.08231358160284 0 0 0
228 57 4 0 44.773592164544986 27.568732003655615 38.298678876193286 0 0 0
233 59 1 0 3.6836084536310754 35.432947863247904 30.065879909531787 0 0 0
192 48 4 0 21.84996938149878 40.05186506404231 37.423001250276585 0 0 0
61 16 1 0 20.153727748130652 41.439846874029335 35.3674874078907 0 -1 0
184 46 4 0 30.7570816582043 33.996530379469846 33.70308452724308 0 0 0
183 46 3 0 33.76779100492907 33.106039005331446 30.89963788298071 0 0 0
201 51 1 0 32.85206442108988 36.0429900973017 34.19811752135142 0 0 0
182 46 2 0 36.65495403535883 32.60627738936649 33.843009037260735 0 0 0
202 51 2 0 33.23717917501307 34.597632372011375 38.071019426496655 0 0 0
171 43 3 0 -1.344865815548562 25.5410279239669 42.613195143760585 0 0 0
194 49 2 0 -6.852908496398991 22.85767383215215 42.974997151717474 0 0 0
195 49 3 0 -3.277922790685905 22.760645542299894 45.067601802138434 0 0 0
196 49 4 0 -1.006059341750567 22.587576115496717 42.250102209607626 0 0 0
199 50 3 0 -1.2778642474572566 22.17639037480171 39.58545761794844 0 0 0
200 50 4 0 -5.06336093415932 21.57890003449743 40.67282216019757 0 0 0
169 43 1 0 -3.898919670997576 29.369373191761987 44.99556425446006 0 0 0
170 43 2 0 -0.04369804783486581 28.173952138086364 44.63064212599125 0 0 0
172 43 4 0 2.5496168046614045 24.030602560069354 42.16550253781256 0 0 0
1 1 1 0 2.548932965017762 21.23073438825361 45.76849634629527 0 0 -1
237 60 1 0 14.037683174980684 23.883175127708625 43.631590949616985 0 0 0
187 47 3 0 18.95587632825676 22.19502274265424 40.83562654720695 0 0 0
239 60 3 0 19.74308555561949 24.756028783390974 44.60184724146317 0 0 0
238 60 2 0 16.81069092362566 26.282666536842047 42.24022864267669 0 0 0
179 45 3 0 21.952851473931634 27.044058953282523 47.22565809776229 0 0 0
240 60 4 0 22.534321765640446 27.157668841808494 43.233197456760635 0 0 0
185 47 1 0 20.94269180930104 27.04817577287902 40.33219366038324 0 0 0
178 45 2 0 26.04316847764712 26.850496426696132 47.42735764830491 0 0 0
177 45 1 0 26.420879420744924 29.805070266234086 44.9970842365467 0 0 0
193 49 1 0 46.599402714979384 22.774733104292558 46.52990390898526 -1 0 0
206 52 2 0 43.837067149765964 24.10974784356453 39.87124739719376 0 0 0
207 52 3 0 44.372456420003786 27.786537858733904 41.108892280121204 0 0 0
208 52 4 0 45.23012247679442 27.41090944850366 44.32137845131138 0 0 0
189 48 1 0 18.633535255520755 36.7753542091458 45.3405756495245 0 0 0
190 48 2 0 19.87537999126155 39.572432581892905 42.952016020098455 0 0 0
191 48 3 0 20.46452950878669 37.36775220596853 39.64174155242701 0 0 0
203 51 3 0 33.5675025886071 38.0481379222886 39.377479162495916 0 0 0
204 51 4 0 34.32758709200196 36.967324578505306 43.33244608910252 0 0 0

Velocities

8 0.001820433550522161 0.00032892222390035344 0.004506103903634831
45 0.00037612869515599867 -0.002314819247014558 0.0003108755074530099
47 -0.00031278158192643855 -0.001658408200193596 -0.0036937347638262264
46 -0.0007466300754302954 -0.00478180394796716 0.0040862914088031785
18 -0.004740691657640729 -0.0010929774325529194 0.0008127935591247762
3 0.0036410691262389275 -0.0020496786123010316 -0.0001547556515679108
4 -0.0018143891085400227 0.0004495077609912885 -0.001850336086147779
19 0.002971991258546694 -0.0007053386242634763 -0.0022331384279663633
20 0.0033527027130915675 -0.00042917896019686554 0.0015306527650201572
36 -0.002651051934659213 -0.004383237137167976 0.0009699122714206674
80 0.00043644649853536187 0.0031651007501124996 0.00059637884452498
165 0.0006783966310329038 -0.000408531407709637 -0.0008181388067110867
7 -0.0012161831703365882 -0.0010348659720081058 0.00014477806532816915
6 -0.0011177568130374225 0.00018360526268077954 -0.002789152972991332
48 -0.0023736638274597177 0.000977058166664648 -0.0022902078763551294
9 -0.0011647240603249397 -0.00036347137648799787 -0.0030925953799937375
10 -0.001696434427836401 -0.002369607083582389 2.065083472660155e-05
11 0.0013960267866776385 0.0020842913862930703 -0.0010273876327776643
12 0.0007697319222332824 0.00014981755313548545 -0.0017918148445184798
139 -0.0010361437320339747 -0.0025680166947313347 0.0013414219851235055
34 0.0019474440749632385 0.0028738256922717963 -0.00015813238475388016
33 -0.0006794824378067914 0.0013500072876360626 -0.0028431524471059983
35 -0.0003382983579549455 -0.002987119294687184 0.002261949467234162
152 6.20403069764793e-05 0.0010484373940320532 0.005432888298954239
166 0.0004003838915800565 0.0005071188324315717 0.0016359156349807845
38 -0.001669496582302428 -0.0038306007191533037 0.00028428380178400543
40 -0.0006232376392609828 0.0020878066694997254 -0.004406371076320639
43 -0.004540428552168796 -0.0011858758396041701 -0.0027911983375709087
44 0.0016560349299197098 0.002937020360632213 0.0028163209647306675
21 -0.002644255382407785 -0.0011400592991266535 -0.001545820455165466
39 -0.0009877210496158715 0.0019046927253920103 0.0013076790765958798
22 -0.0001467196398237461 0.00024413622910563504 -0.001265048304472123
111 -0.001771279292213951 -0.00022530556209464085 -0.0030209031660165127
16 0.00041372702082937096 -0.0016874979171581596 -0.001742912918747094
15 -0.0002496251777272493 -7.68510458747728e-05 -0.005698844567740971
14 -0.001385403468096325 -0.0019425910217384496 -0.0005197919415566987
13 0.0019634374792916083 0.0005527116863742929 -0.002029385605574003
140 -0.00031777878378812783 -0.0016249617240989475 -0.0006583121980266155
23 -0.00020498717146929854 0.0020530577140285304 -0.0012125985453591947
24 -0.003731983815557676 0.0010915248710904456 -0.001778400787872905
30 -0.0006690730984411838 -0.00045516380077573095 -0.0014220679953896303
29 0.000755086847568086 2.542505018592627e-05 0.000864967947406528
31 4.024645329813883e-05 -0.0008727371402466592 -0.001469273049033455
92 -0.0010801408687613088 -0.0016602436094201526 0.0005317854067292574
52 -4.9448802842827726e-05 0.00143318635771607 -0.00010004413227346625
50 0.0027225771174140714 0.0013515524933151975 0.001241891639584751
49 0.0009389157793171639 -0.0003078608437578487 0.0040643673301158645
51 -0.000904279564786607 -0.00507067055250666 -0.00023402710101709154
25 -0.002070800148409875 0.002890250717294756 0.0008850192837492939
26 -0.00015406246376547072 -0.002152416017805418 0.0031063114036236766
71 -0.003529762890414833 -0.0043496808473505386 0.005633838980313405
69 -0.0021391764127379905 0.003330838071166614 -0.0027627598172446617
85 0.005062327316298242 0.0013149802781184101 -0.0033141798706782365
27 -0.0005782567931520244 0.0006927630252697441 -0.002574019433303977
28 -0.0009236000260329068 -0.0007082018572965409 -9.172717826464142e-05
53 -0.001350763810108473 -0.0019518116569647614 0.0021246206506842125
55 0.00074817099115734 0.0020295671914477647 -0.003230866540365699
224 -0.0022879534872470506 0.0014497335957300165 0.003108971458114915
91 -0.00035347886564793333 0.0016378736527756102 -0.0012465314829194188
90 0.0007651053314097372 -0.0024692634714709293 0.0008322363669700498
89 0.0005769028851294335 0.0025180563610156604 0.002782393974268114
70 0.00132095009613555 0.000572179536707614 -0.0002211653153377989
86 -0.001016063139898258 -0.004091889763340333 0.0022497084785734083
88 -0.0021677392384329636 0.001824091452956783 0.004476245867299399
87 0.002762075704120539 -0.003753065004943306 0.00010842923170845882
75 0.0003099211407341047 0.0006868671017899223 -0.004285257138293755
76 -0.001935808865453857 0.004601505783678176 -0.004054969874171438
93 0.0023160946332999154 0.00018220169470843263 -0.001973943628008419
81 0.0019230547342284532 -0.0001931624254011631 -0.0022181360469119065
63 -0.0029685169515173693 0.0009691050280022788 0.001169546585867077
64 0.004804073700454835 -0.0017951662401047763 0.0022860886612945737
62 0.004432224582952397 0.0020848267697985154 0.00044637258596606837
198 -0.001306101066581272 0.0018217731684613255 0.0016999869287979037
188 -4.2309728950451465e-05 -0.0005507766312104164 -0.0019747105689378198
65 -0.0018837146648666878 0.0009793567478318678 0.00036166498771903453
66 0.003482096639687276 -0.0046669009282881155 -0.0002915820124809909
67 -0.0010173673498512002 -0.0015241883311380956 0.004228312372343117
74 -0.002144788110290751 0.0029716709651942045 0.0008373094584345921
94 -0.0003757531724311998 -0.0006518706487932142 0.003453130101527851
95 -0.0012448256934828458 0.005912003977679317 0.0004311145821593544
96 -0.0023989356303089947 0.00026620602297335944 5.663751249144943e-06
82 -0.0012518250552176998 0.0012218014216791402 0.002128780032777441
83 0.003352675670042285 0.0008343781143846284 0.003935741187650476
84 -0.0036514247821427905 0.0010301282768319909 -0.0010197726269273232
17 -0.0008295716657210107 -0.0037183744638195947 -0.001255128859610967
73 -0.0021593019363567805 -0.0010509373038719947 0.001381673425258189
2 -0.0007792528862884575 0.0024929768785152194 -0.00032995652180427406
77 0.0007842814019805589 0.0009462837801147078 -0.00034710224632123767
79 0.0008599595043786409 -0.001250565969829517 -0.0009460655080110687
78 -0.001634371248677171 -0.0005016393758390454 0.002539487922320907
68 0.00040234847388323936 0.0017908400049002798 0.0002923943207913759
57 0.0007125697187981972 -0.0032525766964610005 -0.002294702544103531
58 0.0024431724071624474 -0.0009193439968900757 -0.0015618961256195544
59 0.0024856096007034555 0.002077411386955025 -0.000535529876224459
60 -0.00035534458559540193 -0.0017906819844220928 -0.0018504870896902885
180 0.0016446702634869065 0.0021415055200847224 -0.0013551213878947453
97 -0.002937593569318875 -0.003086313859145155 -0.0011404920789522693
98 0.004328306038842296 -0.0008145616953109948 -0.0008325454369732863
99 0.003412979310924632 0.0018348586484767113 0.0007584245528552442
124 0.0033182680781914395 -0.002342278278542067 -0.00017530895184609174
123 -0.00024018469323272725 -0.0008727574137706418 0.0038226545523413827
141 0.0028936527027103565 0.0006839874545883402 -0.00028345124579581165
130 0.00019370670704852049 0.0013386728448822056 -0.0003451706109000492
129 0.0016128371806668556 -0.0023002116042569907 -4.589500159429019e-06
149 0.0027470440965627722 0.0007801357481259166 0.0009975623218499354
150 0.0011098837344060283 -0.0010137970713264813 -0.0018193662697058757
151 -0.0005687391377690659 0.0011938834671846696 0.001750599743540375
167 -0.0014488375155265229 0.0006004999545940613 0.0015398082973073883
122 0.0002314044742964365 0.0041963854557497664 0.00041283421050895445
168 0.00028357649077548347 -0.0009531735168839749 0.0024595876964305335
121 0.002186786050194523 -0.0036895271672825465 -0.000681404137664549
164 0.0006156962313206673 0.0017377183847558382 0.0005928862555275784
162 -0.0015120622955895563 -0.00028323599367276767 0.0014602520037504277
131 -0.0002242114882515539 0.0026850873684812686 -0.0007626240967009531
5 -0.0008522610965233801 -0.0005623002538047728 0.002668810345006145
128 0.0007705203502860104 0.0026504941010309173 -0.001070388709042514
117 0.005115085677679476 0.0018642611850374364 0.002696275541783531
118 0.0015947827171077815 0.00039198265679359377 0.0012557004302667413
120 0.0029093705854742235 -0.0017559368807290297 0.0009914029646244887
119 -5.061300691127828e-05 -0.00275202815130504 0.0005694388388656326
109 -0.002058211242291451 -0.0003934004136990964 1.3388016558353809e-05
163 0.0018616633017354768 -0.0012206543881019606 -0.0015169468799758707
100 0.00062404058290999 -0.0013281976359951627 0.001629671767820556
137 -0.00034624637532682743 0.00250799841830151 -0.0022298134841149645
138 0.0005090698546869749 -0.003778456794954705 0.0007064179912627384
161 0.004093402523930912 -0.0024088743588758206 -0.003278034493874797
41 0.0009123097487012033 0.0014399618705600323 0.001130998675597153
142 -0.0006782177851507938 -0.0013312555112467155 -0.0009811059953951228
143 -0.00012586237981987002 0.0009016125626872813 0.0004503237667407591
144 -0.0005537025197302642 0.0019098576485220683 0.0029325645606766895
155 0.0038941889308337597 0.00027818719473644187 -0.0016445216575503867
154 -0.0017718828079048917 -0.0012301020400759767 0.00020436846456680301
153 -0.00140557812570526 0.0012873635436632348 -0.003373395951537694
32 -0.001990613389841475 -0.0006929927230319592 0.0017313646512784418
145 0.0004937494939543163 0.0013622874565803445 -0.002710549357792441
146 0.0021274226453829653 -0.0003631740123490552 -0.0030836484021195907
147 -0.0018859833051169804 0.0002126683190865647 0.0003344188914595997
102 -0.003716985406389292 -0.002546053563661148 0.0007188294514465028
113 0.0025390372823994914 -0.001365013850502487 2.502664771885669e-05
114 0.00376632170789672 0.0012767517501647366 0.00024301849650047835
115 -0.0007829191285015343 0.0015368775199373441 0.0036684149775848334
116 -0.007258160696768413 -0.0014207153853594812 -0.0021271148820018048
101 0.0012508651971672728 0.0021968117969737087 0.0005417174953871186
105 -0.0014566548216009526 0.0021766525425924595 -0.00144316997572856
106 -0.001249516717009218 -0.0017417331816616632 -0.0027872939099889203
107 0.0018468231440790103 0.0019636226424746706 0.0002578130763836958
42 -0.0009159302033741136 0.0031706037048718568 -0.0003202565011498633
132 -0.0016669765558989594 -0.00027381273208223187 -0.0003989087838517608
108 0.004058119532183036 -5.334491406889178e-05 -0.0004871594070249133
37 0.0003579532975025817 0.0005575635736237495 0.0005358502421049323
221 0.0017689047697832482 0.002115873583002452 0.002591717191537273
126 0.0007848465363922437 8.05586200385056e-05 0.001057606495916526
135 0.004836915010176696 0.0006806526137750854 -0.0009570664842296948
136 -0.0021414827710585058 -0.0015830347609093068 4.0586083656567114e-05
134 0.0026167000738738944 0.0028153719665491993 0.00021296536867707435
125 -0.00222815449963193 0.00019281336409333153 0.0002694200722214023
127 0.00489870244118735 0.0021382583914107125 -0.0011768165072214135
133 0.0031600844810747964 0.0014846502348577933 -0.00045556779893908995
160 -0.0001031554745665356 -0.003181577361077516 0.0038017083585915436
159 -0.0011020590121457172 -0.0017018563247579888 -0.0032366910757543692
157 -0.00014317447018021687 0.0030755735593379287 -0.00027477669212378137
158 -0.002763998889772766 -0.003965617418330202 -0.00423853911645875
110 -0.0013793155268505865 0.003136685477369747 -0.0007413644023521089
112 0.000538801727837597 0.001812904368522352 0.002390554645997025
156 -0.0003530319752434896 0.000548790393829029 0.000704631225700302
236 -0.0018260750191626824 -0.0016737729568877331 0.0017507279882999548
148 0.0002546111860384522 0.0005362391371851601 0.002168836136702423
209 0.0014164631377968908 -0.0006568088232013877 -0.000743019958511687
72 -0.0018872621774498606 -0.0030388114100999807 -0.00043582910464308406
104 -0.0025973538533679715 -0.0011193831001788553 -0.0012985578066185893
103 0.0017612163022833057 -0.0014404961123399872 0.002842849192828125
229 0.0015219456892387225 3.961617890552042e-05 -0.002701164190672673
230 -0.000323849681371192 -0.00010074567496478648 -0.0007925997819498141
231 -0.0015922389400107445 0.0005196150002729148 0.0013911281787740187