LAMMPS (30 Mar 2026 - Development - patch_30Mar2026-1171-gbafd8de6f3-modified)
OMP_NUM_THREADS environment is not set. Defaulting to 1 thread.
  using 1 OpenMP thread(s) per MPI task
units		real
dimension	3
boundary	p p p
# Use the hybrid atom style if you want systems that aren't simple atomic + ld info
atom_style	full

newton		on
timestep	0.5

bond_style harmonic
angle_style harmonic
dihedral_style harmonic
improper_style none


region my_box block 0 40 0 40 0 40
create_box 4 my_box bond/types 1 angle/types 1 dihedral/types 1 extra/bond/per/atom 12 extra/angle/per/atom 12 extra/dihedral/per/atom 8 extra/special/per/atom 30
Created orthogonal box = (0 0 0) to (40 40 40)
  1 by 1 by 1 MPI processor grid

mass  * 59.0448

# Use pair_style hybrid to incorporate the LDD interactions with other forces
pair_style hybrid/overlay ldd table spline 3000

molecule CHAIN ABCD.mol
Read molecule template CHAIN:
# 5 Bead Chain molecule File
  1 molecules
  0 fragments
  0 bodies
  4 atoms with max type 4
  3 bonds with max type 1
  2 angles with max type 1
  1 dihedrals with max type 1
  0 impropers with max type 0
create_atoms 0 random 60 885401 my_box mol CHAIN 454756
Created 240 atoms
  using lattice units in orthogonal box = (0 0 0) to (40 40 40)
  create_atoms CPU = 0.001 seconds

include ff_bonded_params.lammps
bond_coeff 1 4 3.0 # < this is v2 and v3
#bond_coeff 1 2 3.0 < this is v1
#angle_coeff 1 1 90.0 < This is for v1 amd v2
angle_coeff 1 10 90 # v3 had 40, now we just multiplied
dihedral_coeff 1 1 1 1

velocity	all create 300.0 22345 dist gaussian

pair_coeff	* * table nb_interaction_tables/lammps_nb_ACA_ACA.table nb_ACA_ACA 15.0
WARNING: 3 of 399 force values in table nb_ACA_ACA are inconsistent with -dE/dr.
WARNING:  Should only be flagged at inflection points (src/pair_table.cpp:469)

# map atom types 1-4 to local-density species A,B,C,D (defined in the file)
pair_coeff 	* * ldd ldd_input_file.txt A B C D
# In this example, for simplicity, we set interactions by central site, so every
# ordered species pair X Y reuses the X-centered table.  Up to 4x4 distinct
# settings are possible (one line per ordered species pair).

neigh_modify	delay 0 every 1 check yes one 10000
neighbor	15.0 bin
thermo          500
thermo_style    custom step temp ke pe evdwl etotal press vol

# converting real lammps units to gromacs/bocs units for easy reporting
# variable STEP equal step
# variable TEMP equal temp
# variable VOL equal vol/1000.0
# variable PRESS equal press*1.01325

# The per-atom local-density quantities computed by pair style ldd are made
# available through "fix pair".  Each field has one column per species (in the
# A,B,C,D order of the type map); grad_density has 3 columns (x,y,z) per species.
# The example below collects them all into the per-atom array f_lddout:
#   f_lddout[1..4]    local_density of A,B,C,D
#   f_lddout[5]       total_energy
#   f_lddout[6..17]   grad_density (x,y,z) of A,B,C,D
#   f_lddout[18..21]  grad_energy of A,B,C,D
# fix lddout all pair 1 ldd local_density 0 total_energy 0 grad_density 0 grad_energy 0



minimize 1.0e-8 1.0e-10 1000 10000

CITE-CITE-CITE-CITE-CITE-CITE-CITE-CITE-CITE-CITE-CITE-CITE-CITE

Your simulation uses code contributions which should be cited:

- pair ldd command: doi:10.1063/1.5128665

@Article{DeLyser1,
 author = {Michael R. DeLyser and W. G. Noid},
 title = {Analysis of local density potentials},
 journal = {The journal of chemical physics},
 year =    2019,
 volume =  151,
 pages =   {22:224106}
}

- pair ldd command gradient keyword: doi:10.1063/5.0075291

@Article{DeLyser2,
 author = {Michael R. DeLyser and W. G. Noid},
 title = {Coarse-grained models for local density gradients},
 journal = {The Journal of Chemical Physics},
 year =    2021,
 volume =  156,
 pages =   {034106}
}

CITE-CITE-CITE-CITE-CITE-CITE-CITE-CITE-CITE-CITE-CITE-CITE-CITE

WARNING: Using a manybody potential with bonds/angles/dihedrals and special_bond exclusions (src/pair.cpp:253)
Neighbor list info ...
  update: every = 1 steps, delay = 0 steps, check = yes
  max neighbors/atom: 10000, page size: 100000
  master list distance cutoff = 30
  ghost atom cutoff = 30
  binsize = 15, bins = 3 3 3
  2 neighbor lists, perpetual/occasional/extra = 2 0 0
  (1) pair ldd, perpetual
      attributes: half, newton on
      pair build: half/bin/newton
      stencil: half/bin/3d
      bin: standard
  (2) pair table, perpetual
      attributes: half, newton on, cut 30
      pair build: half/bin/newton
      stencil: half/bin/3d
      bin: standard
Per MPI rank memory allocation (min/avg/max) = 17.16 | 17.16 | 17.16 Mbytes
   Step          Temp          KinEng         PotEng         E_vdwl         TotEng         Press          Volume    
         0   300            213.72408      15980.509      15980.509      16194.233      19402.689      64000        
       500   300            213.72408     -1382.5087     -1496.6779     -1168.7846      15.686691      64000        
      1000   300            213.72408     -1734.3169     -1910.9157     -1520.5928      102.50102      64000        
Loop time of 1.56959 on 1 procs for 1000 steps with 240 atoms

99.4% CPU use with 1 MPI tasks x 1 OpenMP threads

Minimization stats:
  Stopping criterion = max iterations
  Energy initial, next-to-last, final = 
       15980.508520547  -1734.22503398752  -1734.31686475327
  Force two-norm initial, final = 5439.9509 8.6250371
  Force max component initial, final = 1351.817 2.5215606
  Final line search alpha, max atom move = 0.035590464 0.089743513
  Iterations, force evaluations = 1000 1726

MPI task timing breakdown:
Section |  min time  |  avg time  |  max time  |%varavg| %total
---------------------------------------------------------------
Pair    | 1.5255     | 1.5255     | 1.5255     |   0.0 | 97.19
Bond    | 0.012461   | 0.012461   | 0.012461   |   0.0 |  0.79
Neigh   | 0.0088963  | 0.0088963  | 0.0088963  |   0.0 |  0.57
Comm    | 0.01544    | 0.01544    | 0.01544    |   0.0 |  0.98
Output  | 4.0647e-05 | 4.0647e-05 | 4.0647e-05 |   0.0 |  0.00
Modify  | 0          | 0          | 0          |   0.0 |  0.00
Other   |            | 0.007219   |            |       |  0.46

Nlocal:            240 ave         240 max         240 min
Histogram: 1 0 0 0 0 0 0 0 0 0
Nghost:           3659 ave        3659 max        3659 min
Histogram: 1 0 0 0 0 0 0 0 0 0
Neighs:          43352 ave       43352 max       43352 min
Histogram: 1 0 0 0 0 0 0 0 0 0

Total # of neighbors = 43352
Ave neighs/atom = 180.63333
Ave special neighs/atom = 3
Neighbor list builds = 5
Dangerous builds = 0

#Set fixes
fix             1  all      nvt        temp       300.0  300.0 100.0

run_style       verlet
# Print statements for the above variables, uncomment both if want sim stats
#fix             print_temp all print 500 "${STEP} ${TEMP}" file temp.dat screen no
#fix             print_vol all print 500 "${STEP} ${VOL}" file vol.dat screen no
#fix             print_press all print 500 "${STEP} ${PRESS}" file press.dat screen no

## Dump a trajectory with the per-atom LD quantities (needs "fix lddout" above).
## f_lddout[*] expands to all 21 columns described next to the fix pair command.
# dump         4 all custom 500 bocs_traj.lmp id x y z vx vy vz fx fy fz f_lddout[*]
# dump_modify  4 sort id

## Run for this many steps
run 10000 # production run for 4 ns.
WARNING: Using a manybody potential with bonds/angles/dihedrals and special_bond exclusions (src/pair.cpp:253)
Per MPI rank memory allocation (min/avg/max) = 16.04 | 16.04 | 16.04 Mbytes
   Step          Temp          KinEng         PotEng         E_vdwl         TotEng         Press          Volume    
      1000   300            213.72408     -1734.3169     -1910.9157     -1520.5928      102.50102      64000        
      1500   205.10585      146.12019     -1588.8036     -1833.1494     -1442.6834     -117.59004      64000        
      2000   316.79369      225.68813     -1543.0236     -1789.5426     -1317.3355     -92.931091      64000        
      2500   283.20416      201.75849     -1510.9593     -1774.9517     -1309.2008     -216.49051      64000        
      3000   289.6516       206.35174     -1568.8815     -1800.2246     -1362.5298     -70.955395      64000        
      3500   304.11998      216.65921     -1552.5616     -1812.1087     -1335.9024     -100.44851      64000        
      4000   312.2829       222.47459     -1550.6984     -1817.1766     -1328.2238     -46.472234      64000        
      4500   279.69214      199.25649     -1577.2513     -1835.8197     -1377.9948     -61.625752      64000        
      5000   314.22873      223.86082     -1577.7236     -1831.6706     -1353.8628      84.602524      64000        
      5500   307.87834      219.33672     -1608.6813     -1882.2966     -1389.3446     -122.78422      64000        
      6000   300.48927      214.07264     -1645.3144     -1936.0726     -1431.2417     -34.673949      64000        
      6500   290.31933      206.82744     -1638.3785     -1916.269      -1431.5511      18.810161      64000        
      7000   342.85951      244.25778     -1628.6055     -1972.0332     -1384.3477     -183.8479       64000        
      7500   291.8609       207.92567     -1667.2165     -1991.7385     -1459.2908      221.27648      64000        
      8000   327.24468      233.13356     -1689.3856     -2001.8465     -1456.252       127.12959      64000        
      8500   289.90829      206.53461     -1710.191      -2020.4062     -1503.6564     -192.12291      64000        
      9000   314.32203      223.92729     -1728.2831     -2029.4792     -1504.3558     -35.212993      64000        
      9500   285.71595      203.54793     -1752.5871     -2039.7736     -1549.0392      98.48453       64000        
     10000   304.51869      216.94325     -1744.6475     -2039.7994     -1527.7042     -191.08808      64000        
     10500   303.02478      215.87897     -1771.3665     -2085.5638     -1555.4876     -12.130673      64000        
     11000   290.88505      207.23046     -1773.4957     -2107.9844     -1566.2653     -14.829548      64000        
Loop time of 9.58297 on 1 procs for 10000 steps with 240 atoms

Performance: 45.080 ns/day, 0.532 hours/ns, 1043.518 timesteps/s, 250.444 katom-step/s
99.4% CPU use with 1 MPI tasks x 1 OpenMP threads

MPI task timing breakdown:
Section |  min time  |  avg time  |  max time  |%varavg| %total
---------------------------------------------------------------
Pair    | 9.3844     | 9.3844     | 9.3844     |   0.0 | 97.93
Bond    | 0.062295   | 0.062295   | 0.062295   |   0.0 |  0.65
Neigh   | 0.0046588  | 0.0046588  | 0.0046588  |   0.0 |  0.05
Comm    | 0.087577   | 0.087577   | 0.087577   |   0.0 |  0.91
Output  | 0.00043709 | 0.00043709 | 0.00043709 |   0.0 |  0.00
Modify  | 0.029831   | 0.029831   | 0.029831   |   0.0 |  0.31
Other   |            | 0.01378    |            |       |  0.14

Nlocal:            240 ave         240 max         240 min
Histogram: 1 0 0 0 0 0 0 0 0 0
Nghost:           3681 ave        3681 max        3681 min
Histogram: 1 0 0 0 0 0 0 0 0 0
Neighs:          42271 ave       42271 max       42271 min
Histogram: 1 0 0 0 0 0 0 0 0 0

Total # of neighbors = 42271
Ave neighs/atom = 176.12917
Ave special neighs/atom = 3
Neighbor list builds = 3
Dangerous builds = 0
Total wall time: 0:00:11
