LAMMPS (10 Dec 2025 - Development - patch_10Dec2025-1117-gc6f63e885c-modified)
# pouring spheres into box made of triangles

units			lj
atom_style		tri
atom_modify     map array
boundary        f f f
dimension		3
comm_modify     vel yes

read_data		data.tribox
Reading data file ...
  orthogonal box = (-9 -9 -9) to (9 9 9)
  1 by 1 by 1 MPI processor grid
  reading atoms ...
  24 atoms
  24 triangles
  read_data CPU = 0.017 seconds

pair_style		hybrid granular surf/granular
pair_coeff		1 1 granular hooke 4000.0 100.0                          tangential linear_history 1000.0 1.0 0.5 						 damping mass_velocity
pair_coeff		1 2 surf/granular hooke 4000.0 100.0                          tangential linear_history 1000.0 1.0 0.5 						 damping mass_velocity
pair_coeff		2 2 none

group           sphere type 1
0 atoms in group sphere
group           tri type 2
24 atoms in group tri

fix             fsl all surface/local
Fix surface/local triangle creation:
  24 tris
  36 tri edges
  14 tri corner points
  36 edge connections
  84 corner point connections
  0 free edges
  0 free corner points
  8.485281374238568 min edge length
  12.000000000000005 max edge length
  35.999999999999986 min tri area
  36.000000000000036 max tri area

neighbor		0.3 bin
neigh_modify	delay 0 every 1 check yes

fix             2 sphere nve/sphere
fix				3 sphere gravity 1.0 vector 0 0 -1

region          slab block -2 2 -2 2 -2 2 units box
fix             ins sphere pour 100 1 4767548 vol 0.4 10 	        	diam one 1.0 region slab ignore

timestep		0.005

compute         1 sphere temp
compute_modify  1 dynamic/dof yes

compute         2 sphere temp/sphere
compute_modify  2 dynamic/dof yes

thermo			100
thermo_style	custom step atoms temp c_1 c_2 press
thermo_modify   lost ignore
compute_modify  thermo_temp dynamic/dof yes

#dump			2 all image 100 tmp.image.*.ppm type type #				zoom 1.4 adiam 1.0 tri type 2 0.2
#dump_modify		2 pad 5

run	        	5000
Generated 0 of 1 mixed pair_coeff terms from geometric mixing rule
Particle insertion: 48 every 566 steps, 100 by step 1133
Neighbor list info ...
  update: every = 1 steps, delay = 0 steps, check = yes
  max neighbors/atom: 2000, page size: 100000
  master list distance cutoff = 7.1245553
  ghost atom cutoff = 7.1245553
  binsize = 3.5622777, bins = 6 6 6
  3 neighbor lists, perpetual/occasional/extra = 3 0 0
  (1) pair granular, perpetual, skip from (3)
      attributes: half, newton on, size, history, off2on
      pair build: skip/size/off2on
      stencil: none
      bin: none
  (2) pair surf/granular, perpetual, skip from (3)
      attributes: half, newton on, size, history, onesided, off2on
      pair build: skip/size/off2on/oneside
      stencil: none
      bin: none
  (3) neighbor class addition, perpetual
      attributes: half, newton off, size, history
      pair build: half/size/bin/atomonly/newtoff
      stencil: full/bin/3d
      bin: standard
WARNING: Maximum triangle diameter 12.000000000000005 may be less than ghost cutoff 7.124555320336759 (../fix_surface_local.cpp:464)
Per MPI rank memory allocation (min/avg/max) = 18.61 | 18.61 | 18.61 Mbytes
   Step        Atoms         Temp           c_1            c_2           Press     
         0          24   0              0              0              0            
WARNING: Fewer insertions than requested (../fix_pour.cpp:691)
       100          54   0.43980579     0.803783       0.39507978     0.0039968633 
       200          54   0.65485258     1.1967995      0.5882574      0.0059511637 
       300          54   0.70118095     1.2814686      0.62987441     0.0063721863 
       400          54   0.45325721     0.82836663     0.40994817     0.0041545596 
       500          54   0.45475589     0.83110558     0.414729       0.0059300973 
WARNING: Fewer insertions than requested (../fix_pour.cpp:691)
       600          88   0.36933761     0.51003765     0.26258869     0.0051564871 
       700          88   0.42058223     0.58080404     0.29751792     0.0091770621 
       800          88   0.46104238     0.63667757     0.32644388     0.0070645303 
       900          88   0.41290353     0.57020011     0.29762919     0.0093938303 
      1000          88   0.34695571     0.47912932     0.25178552     0.0056281583 
      1100          88   0.33424829     0.46158097     0.2466537      0.0060019254 
WARNING: Fewer insertions than requested (../fix_pour.cpp:691)
      1200         123   0.3614775      0.4500026      0.23713789     0.019109241  
      1300         123   0.34569407     0.43035385     0.22891578     0.0079291808 
      1400         123   0.33079907     0.41181109     0.21811837     0.0089493498 
      1500         123   0.28224392     0.35136488     0.1884987      0.013185039  
      1600         123   0.23213442     0.28898366     0.15802273     0.0088292036 
      1700         124   0.1702388      0.21150881     0.11878896     0.016179807  
      1800         124   0.10610694     0.13182983     0.078458463    0.006251554  
      1900         124   0.046015478    0.057170745    0.03888914     0.0022952902 
      2000         124   0.04594889     0.057088014    0.03805616     0.0033739306 
      2100         124   0.041808893    0.051944383    0.034414757    0.0028382447 
      2200         124   0.040457691    0.050265616    0.03207721     0.0030943112 
      2300         124   0.018553141    0.023050872    0.017474362    0.0023429873 
      2400         124   0.014711298    0.018277674    0.014286156    0.001580751  
      2500         124   0.012034545    0.01495201     0.011652046    0.0019115615 
      2600         124   0.0075048587   0.0093242183   0.0077399585   0.0018937062 
      2700         124   0.0045115964   0.0056053168   0.0048779089   0.0021970337 
      2800         124   0.0033270078   0.0041335551   0.0036534953   0.0019026721 
      2900         124   0.0029140629   0.0036205024   0.0031647584   0.0017389127 
      3000         124   0.0026516323   0.0032944522   0.0028509658   0.0016335661 
      3100         124   0.0031863238   0.0039587659   0.003152001    0.0018334464 
      3200         124   0.0018561576   0.0023061352   0.002083728    0.0020088792 
      3300         124   0.0014813147   0.0018404212   0.0017055108   0.0016446671 
      3400         124   0.0012041682   0.0014960878   0.0014333463   0.0015810028 
      3500         124   0.0011264045   0.0013994723   0.0013634773   0.0016394828 
      3600         124   0.0011465786   0.001424537    0.0013284681   0.0015842763 
      3700         124   0.0013498286   0.0016770598   0.0014539166   0.0015216389 
      3800         124   0.00098278396  0.0012210346   0.0011373059   0.0014818947 
      3900         124   0.00090817336  0.0011283366   0.0010600136   0.0015589969 
      4000         124   0.00086590565  0.0010758222   0.001017218    0.0017340934 
      4100         124   0.00083827288  0.0010414905   0.00099255023  0.0015714601 
      4200         124   0.00078508362  0.00097540693  0.00093903443  0.0015201571 
      4300         124   0.00051246689  0.00063670129  0.00067886884  0.0016260687 
      4400         124   0.00046236059  0.000574448    0.00062382169  0.001533497  
      4500         124   0.00043297793  0.00053794228  0.00059505523  0.0015204075 
      4600         124   0.00041881774  0.00052034932  0.00057798587  0.0015047982 
      4700         124   0.00038279264  0.00047559086  0.00054127095  0.0014893341 
      4800         124   0.00033052252  0.00041064919  0.00049383726  0.0015586186 
      4900         124   0.00030491355  0.00037883198  0.00046326744  0.0017367241 
      5000         124   0.000278967    0.00034659537  0.00043393027  0.0015353642 
Loop time of 0.32815 on 1 procs for 5000 steps with 124 atoms

Performance: 6582364.616 tau/day, 15236.955 timesteps/s, 1.889 Matom-step/s
99.3% CPU use with 1 MPI tasks x no OpenMP threads

MPI task timing breakdown:
Section |  min time  |  avg time  |  max time  |%varavg| %total
---------------------------------------------------------------
Pair    | 0.29646    | 0.29646    | 0.29646    |   0.0 | 90.34
Neigh   | 0.018186   | 0.018186   | 0.018186   |   0.0 |  5.54
Comm    | 0.00056786 | 0.00056786 | 0.00056786 |   0.0 |  0.17
Output  | 0.00034023 | 0.00034023 | 0.00034023 |   0.0 |  0.10
Modify  | 0.010714   | 0.010714   | 0.010714   |   0.0 |  3.26
Other   |            | 0.001881   |            |       |  0.57

Nlocal:            124 ave         124 max         124 min
Histogram: 1 0 0 0 0 0 0 0 0 0
Nghost:              0 ave           0 max           0 min
Histogram: 1 0 0 0 0 0 0 0 0 0
Neighs:              0 ave           0 max           0 min
Histogram: 1 0 0 0 0 0 0 0 0 0

Total # of neighbors = 0
Ave neighs/atom = 0
Neighbor list builds = 273
Dangerous builds = 0

fix             1 tri move rotate 0 0 0 0 0 1 25
run	        	5000
Generated 0 of 1 mixed pair_coeff terms from geometric mixing rule
WARNING: Maximum triangle diameter 12.000000000000005 may be less than ghost cutoff 7.124555320336759 (../fix_surface_local.cpp:464)
Per MPI rank memory allocation (min/avg/max) = 19.49 | 19.49 | 19.49 Mbytes
   Step        Atoms         Temp           c_1            c_2           Press     
      5000         124   0.000278967    0.00034659537  0.00043393027  0.0015253758 
      5100         124   5.2232393      0.11933738     0.069329146    0.11428487   
      5200         124   5.247745       0.14978386     0.088364912    0.11245188   
      5300         124   5.2519106      0.15495934     0.088221863    0.1125159    
      5400         124   5.2613617      0.16670158     0.092117768    0.11430306   
      5500         124   5.2693771      0.1766601      0.095554773    0.1127688    
      5600         124   5.2761776      0.18510923     0.098778615    0.11324513   
      5700         124   5.2817577      0.19204205     0.10117237     0.11322744   
      5800         124   5.2900873      0.20239098     0.10577838     0.11375107   
      5900         124   5.2999725      0.21467253     0.11113062     0.11452097   
      6000         124   5.3085721      0.22535696     0.11603671     0.11394794   
      6100         124   5.3130862      0.23096539     0.11894349     0.11466163   
      6200         124   5.3274367      0.24879472     0.12723691     0.11487106   
      6300         124   5.3334606      0.25627898     0.13053284     0.11497761   
      6400         124   5.3397363      0.26407613     0.13424282     0.11546366   
      6500         124   5.3440905      0.26948579     0.13707104     0.11591963   
      6600         124   5.346636       0.27264846     0.13825957     0.11592208   
      6700         124   5.3530461      0.28061246     0.142134       0.11569274   
      6800         124   5.3574627      0.28609975     0.1446711      0.11550824   
      6900         124   5.3597383      0.28892707     0.1461421      0.11652494   
      7000         124   5.3652802      0.29581244     0.14924803     0.11708275   
      7100         124   5.3699548      0.30162026     0.15198102     0.11671848   
      7200         124   5.3712884      0.30327719     0.15264315     0.11691663   
      7300         124   5.3719044      0.30404255     0.15313723     0.11765673   
      7400         124   5.3745457      0.30732406     0.15469203     0.11643969   
      7500         124   5.3778872      0.31147564     0.15647355     0.11771756   
      7600         124   5.3791381      0.31302983     0.15726011     0.11652311   
      7700         124   5.3824476      0.31714166     0.159406       0.11729492   
      7800         124   5.3843537      0.31950982     0.16039558     0.11776333   
      7900         124   5.3864304      0.32209        0.16163625     0.11763596   
      8000         124   5.3873762      0.32326504     0.16233394     0.11700839   
      8100         124   5.3856194      0.32108238     0.1610667      0.11849546   
      8200         124   5.3868282      0.32258424     0.16175856     0.11836213   
      8300         124   5.3869212      0.32269977     0.16179283     0.11725894   
      8400         124   5.3868836      0.32265302     0.16181399     0.11764507   
      8500         124   5.3881756      0.32425825     0.16263572     0.11739591   
      8600         124   5.3908729      0.32760939     0.16427206     0.11721644   
      8700         124   5.3903632      0.32697611     0.16386242     0.11795751   
      8800         124   5.3914252      0.32829559     0.16454358     0.11805068   
      8900         124   5.3947309      0.33240268     0.16649843     0.11862596   
      9000         124   5.394045       0.33155051     0.16601828     0.11822748   
      9100         124   5.3963748      0.33444511     0.16744283     0.11750862   
      9200         124   5.3974647      0.33579917     0.16809918     0.11839097   
      9300         124   5.3983708      0.33692497     0.16870867     0.11901113   
      9400         124   5.3997165      0.33859694     0.16938882     0.11818846   
      9500         124   5.3982847      0.33681797     0.16847403     0.11822758   
      9600         124   5.3983612      0.33691308     0.16860973     0.11922694   
      9700         124   5.3987409      0.33738477     0.16886285     0.1184253    
      9800         124   5.4004924      0.33956098     0.16980645     0.11838204   
      9900         124   5.3990437      0.33776105     0.16891386     0.11963493   
     10000         124   5.3999309      0.33886324     0.16949383     0.11825364   
Loop time of 0.671413 on 1 procs for 5000 steps with 124 atoms

Performance: 3217097.822 tau/day, 7446.986 timesteps/s, 923.426 katom-step/s
99.3% CPU use with 1 MPI tasks x no OpenMP threads

MPI task timing breakdown:
Section |  min time  |  avg time  |  max time  |%varavg| %total
---------------------------------------------------------------
Pair    | 0.62184    | 0.62184    | 0.62184    |   0.0 | 92.62
Neigh   | 0.024264   | 0.024264   | 0.024264   |   0.0 |  3.61
Comm    | 0.00069745 | 0.00069745 | 0.00069745 |   0.0 |  0.10
Output  | 0.0003787  | 0.0003787  | 0.0003787  |   0.0 |  0.06
Modify  | 0.022171   | 0.022171   | 0.022171   |   0.0 |  3.30
Other   |            | 0.002067   |            |       |  0.31

Nlocal:            124 ave         124 max         124 min
Histogram: 1 0 0 0 0 0 0 0 0 0
Nghost:              0 ave           0 max           0 min
Histogram: 1 0 0 0 0 0 0 0 0 0
Neighs:              0 ave           0 max           0 min
Histogram: 1 0 0 0 0 0 0 0 0 0

Total # of neighbors = 0
Ave neighs/atom = 0
Neighbor list builds = 314
Dangerous builds = 0

unfix           1
set             type 1 angmom 0.0 0.0 0.0
Setting atom values ...
  100 settings made for angmom
velocity        tri set 0.0 0.0 0.0
run             5000
Generated 0 of 1 mixed pair_coeff terms from geometric mixing rule
WARNING: Maximum triangle diameter 12.000000000000005 may be less than ghost cutoff 7.124555320336759 (../fix_surface_local.cpp:464)
Per MPI rank memory allocation (min/avg/max) = 18.62 | 18.62 | 18.62 Mbytes
   Step        Atoms         Temp           c_1            c_2           Press     
     10000         124   0.27274358     0.33886324     0.16949383     0.011573563  
     10100         124   0.085524793    0.10625808     0.060499867    0.003674679  
     10200         124   0.059009499    0.073314833    0.051491445    0.0032492499 
     10300         124   0.048002024    0.059638878    0.047815767    0.0038368574 
     10400         124   0.041243888    0.051242407    0.043114672    0.0026784418 
     10500         124   0.03424777     0.04255026     0.037892175    0.0027927057 
     10600         124   0.028295322    0.035154794    0.033512218    0.0023555149 
     10700         124   0.026303411    0.032679995    0.032307038    0.002179859  
     10800         124   0.021602317    0.026839242    0.027155504    0.0026993764 
     10900         124   0.018840037    0.023407319    0.024666185    0.0030044087 
     11000         124   0.016502364    0.020502937    0.022860896    0.0027745672 
     11100         124   0.014954096    0.018579331    0.022519428    0.0026250164 
     11200         124   0.013412462    0.016663968    0.021258003    0.002664685  
     11300         124   0.013372107    0.01661383     0.021069176    0.0027513279 
     11400         124   0.013219054    0.016423673    0.021201864    0.0022354406 
     11500         124   0.011930696    0.014822986    0.019905344    0.0022744188 
     11600         124   0.012035146    0.014952757    0.020008953    0.0018440844 
     11700         124   0.012120662    0.015059004    0.020211227    0.0021606208 
     11800         124   0.011926495    0.014817767    0.019879114    0.0032242415 
     11900         124   0.010626305    0.013202378    0.018434203    0.0020194959 
     12000         124   0.01088582     0.013524807    0.018476685    0.0018637907 
     12100         124   0.010027048    0.012457848    0.018091082    0.0018302523 
     12200         124   0.0099682268   0.012384767    0.018034769    0.0021023716 
     12300         124   0.0099090859   0.012311288    0.017818693    0.0017386896 
     12400         124   0.0091836317   0.011409967    0.017205633    0.0032722331 
     12500         124   0.009167407    0.011389809    0.017851786    0.0018484294 
     12600         124   0.0092140573   0.011447768    0.017962426    0.0019504736 
     12700         124   0.0094193908   0.011702879    0.017663577    0.0018722174 
     12800         124   0.0089659063   0.011139459    0.017763773    0.001721148  
     12900         124   0.0087913119   0.010922539    0.018363678    0.001828736  
     13000         124   0.0085358865   0.010605192    0.018164753    0.0022952545 
     13100         124   0.0092530134   0.011496168    0.018780035    0.0017357818 
     13200         124   0.008455492    0.010505308    0.01768712     0.0026958058 
     13300         124   0.0077480794   0.0096264016   0.016904176    0.0018047768 
     13400         124   0.0076101589   0.0094550459   0.017953027    0.0019550632 
     13500         124   0.0074809176   0.0092944734   0.016577725    0.0019162236 
     13600         124   0.0079664603   0.0098977234   0.017442101    0.0020204656 
     13700         124   0.0073848246   0.0091750851   0.016465639    0.002130355  
     13800         124   0.0069660638   0.0086548065   0.01585273     0.0018414373 
     13900         124   0.0062621671   0.0077802682   0.015905456    0.0020344515 
     14000         124   0.0057271716   0.0071155768   0.016634291    0.0026379787 
     14100         124   0.0054155244   0.0067283788   0.017191176    0.0023281568 
     14200         124   0.0055491931   0.0068944521   0.017255829    0.0022923349 
     14300         124   0.0058853484   0.0073120995   0.016475196    0.0021486936 
     14400         124   0.006535187    0.0081194747   0.016684871    0.0025057074 
     14500         124   0.0057228248   0.0071101763   0.015468485    0.0021841906 
     14600         124   0.0056269433   0.0069910508   0.015870947    0.0023696743 
     14700         124   0.0056477695   0.0070169258   0.015259225    0.0019729658 
     14800         124   0.0050347546   0.0062553011   0.014799713    0.0018457211 
     14900         124   0.0049010052   0.0060891276   0.015060189    0.0024182829 
     15000         124   0.0048368066   0.0060093658   0.015264245    0.0018866961 
Loop time of 0.441497 on 1 procs for 5000 steps with 124 atoms

Performance: 4892445.497 tau/day, 11325.105 timesteps/s, 1.404 Matom-step/s
99.8% CPU use with 1 MPI tasks x no OpenMP threads

MPI task timing breakdown:
Section |  min time  |  avg time  |  max time  |%varavg| %total
---------------------------------------------------------------
Pair    | 0.42093    | 0.42093    | 0.42093    |   0.0 | 95.34
Neigh   | 0.0076442  | 0.0076442  | 0.0076442  |   0.0 |  1.73
Comm    | 0.00046273 | 0.00046273 | 0.00046273 |   0.0 |  0.10
Output  | 0.00036355 | 0.00036355 | 0.00036355 |   0.0 |  0.08
Modify  | 0.010159   | 0.010159   | 0.010159   |   0.0 |  2.30
Other   |            | 0.001937   |            |       |  0.44

Nlocal:            124 ave         124 max         124 min
Histogram: 1 0 0 0 0 0 0 0 0 0
Nghost:              0 ave           0 max           0 min
Histogram: 1 0 0 0 0 0 0 0 0 0
Neighs:              0 ave           0 max           0 min
Histogram: 1 0 0 0 0 0 0 0 0 0

Total # of neighbors = 0
Ave neighs/atom = 0
Neighbor list builds = 101
Dangerous builds = 0

fix             1 tri move rotate 0 0 0 1 1 1 25
run	        	5000
Generated 0 of 1 mixed pair_coeff terms from geometric mixing rule
WARNING: Maximum triangle diameter 12.000000000000005 may be less than ghost cutoff 7.124555320336759 (../fix_surface_local.cpp:464)
Per MPI rank memory allocation (min/avg/max) = 19.49 | 19.49 | 19.49 Mbytes
   Step        Atoms         Temp           c_1            c_2           Press     
     15000         124   0.0048368066   0.0060093658   0.015264245    0.0018475109 
     15100         124   5.2447006      0.14600138     0.088790862    0.11192069   
     15200         124   5.3085357      0.22531166     0.13006591     0.12065638   
     15300         124   5.325001       0.24576857     0.138738       0.11854359   
     15400         124   5.3345929      0.25768574     0.14207772     0.11763195   
     15500         124   5.3300701      0.2520666      0.13824744     0.12319293   
     15600         124   5.3465088      0.27249039     0.14834323     0.12196727   
     15700         123   5.3921488      0.27753183     0.14868693     0.12429767   
     15800         123   5.4032083      0.2912998      0.15487249     0.12660054   
     15900         123   5.4350645      0.33095749     0.17414005     0.12951765   
     16000         123   5.4325751      0.32785849     0.17010589     0.13918145   
     16100         123   5.4595912      0.36149077     0.18877854     0.12472667   
     16200         123   5.4406552      0.33791732     0.1747212      0.12814418   
     16300         123   5.4287844      0.32313944     0.16632711     0.12504779   
     16400         123   5.4193186      0.31135544     0.15910701     0.1222164    
     16500         123   5.4069002      0.29589587     0.15103637     0.12232163   
     16600         123   5.4178003      0.30946533     0.15833123     0.12801088   
     16700         123   5.3957421      0.28200518     0.14384795     0.1335819    
     16800         123   5.4230907      0.31605134     0.16092262     0.13371799   
     16900         123   5.4048576      0.293353       0.14958578     0.12053728   
     17000         123   5.4113391      0.30142174     0.15473034     0.12423952   
     17100         123   5.4050643      0.29361029     0.15219198     0.12207863   
     17200         123   5.4047217      0.29318377     0.1535158      0.1178072    
     17300         123   5.4063683      0.2952337      0.15694579     0.11726155   
     17400         123   5.4432373      0.34113184     0.18340575     0.11791157   
     17500         123   5.485753       0.39405953     0.21236804     0.12266026   
     17600         122   5.5901972      0.47185386     0.25518016     0.12488606   
     17700         122   5.6393051      0.53311222     0.29012857     0.12092553   
     17800         122   5.6370643      0.53031699     0.29150087     0.14018839   
     17900         122   5.6539212      0.55134467     0.30215344     0.12157053   
     18000         122   5.6607203      0.55982603     0.30635716     0.12511964   
     18100         122   5.5960588      0.4791658      0.27057005     0.12604504   
     18200         122   5.6129136      0.50019085     0.28434163     0.13067555   
     18300         122   5.5903119      0.47199697     0.2698805      0.12176094   
     18400         122   5.5339022      0.40163021     0.23359063     0.12729097   
     18500         122   5.5069758      0.36804165     0.22034547     0.11949359   
     18600         122   5.4868228      0.34290238     0.20996851     0.11610608   
     18700         122   5.475737       0.32907361     0.20617606     0.11789546   
     18800         122   5.4663713      0.31739061     0.20745356     0.11696257   
     18900         122   5.4828005      0.33788485     0.22088895     0.1164201    
     19000         121   5.5436934      0.36040807     0.2287077      0.12377755   
     19100         120   5.6205135      0.40207439     0.24091309     0.15001007   
     19200         119   5.5963334      0.31620536     0.19075303     0.12225206   
     19300         119   5.583596       0.30021588     0.1741298      0.12667814   
     19400         119   5.6230383      0.34972853     0.19648817     0.13255583   
     19500         119   5.6416977      0.37315209     0.20259598     0.12144509   
     19600         119   5.6365764      0.36672323     0.20045324     0.1224151    
     19700         119   5.6569288      0.39227202     0.21175326     0.12726848   
     19800         119   5.6628908      0.39975615     0.21323877     0.12435682   
     19900         119   5.6701984      0.40892948     0.21692376     0.12010936   
     20000         119   5.6503537      0.38401814     0.20269666     0.12014513   
Loop time of 0.38927 on 1 procs for 5000 steps with 119 atoms

Performance: 5548853.944 tau/day, 12844.569 timesteps/s, 1.529 Matom-step/s
99.3% CPU use with 1 MPI tasks x no OpenMP threads

MPI task timing breakdown:
Section |  min time  |  avg time  |  max time  |%varavg| %total
---------------------------------------------------------------
Pair    | 0.32718    | 0.32718    | 0.32718    |   0.0 | 84.05
Neigh   | 0.036438   | 0.036438   | 0.036438   |   0.0 |  9.36
Comm    | 0.0007463  | 0.0007463  | 0.0007463  |   0.0 |  0.19
Output  | 0.00040208 | 0.00040208 | 0.00040208 |   0.0 |  0.10
Modify  | 0.022434   | 0.022434   | 0.022434   |   0.0 |  5.76
Other   |            | 0.002064   |            |       |  0.53

Nlocal:            119 ave         119 max         119 min
Histogram: 1 0 0 0 0 0 0 0 0 0
Nghost:              0 ave           0 max           0 min
Histogram: 1 0 0 0 0 0 0 0 0 0
Neighs:              0 ave           0 max           0 min
Histogram: 1 0 0 0 0 0 0 0 0 0

Total # of neighbors = 0
Ave neighs/atom = 0
Neighbor list builds = 419
Dangerous builds = 0

unfix           1
set             type 1 angmom 0.0 0.0 0.0
Setting atom values ...
  95 settings made for angmom
velocity        tri set 0.0 0.0 0.0
run             5000
Generated 0 of 1 mixed pair_coeff terms from geometric mixing rule
WARNING: Maximum triangle diameter 12.000000000000005 may be less than ghost cutoff 7.124555320336759 (../fix_surface_local.cpp:464)
Per MPI rank memory allocation (min/avg/max) = 18.62 | 18.62 | 18.62 Mbytes
   Step        Atoms         Temp           c_1            c_2           Press     
     20000         119   0.30591276     0.38401814     0.20269666     0.0044894085 
     20100         119   0.094158591    0.11819908     0.07082936     0.0045670942 
     20200         119   0.084915112    0.10659557     0.065891365    0.0049242114 
     20300         119   0.095843303    0.12031393     0.07182302     0.0045748772 
     20400         119   0.09205065     0.11555294     0.070296013    0.014022667  
     20500         119   0.097192979    0.12200821     0.073196726    0.0089048503 
     20600         119   0.075782739    0.095131523    0.059456861    0.0079954862 
     20700         119   0.063610705    0.079851737    0.051067673    0.0093356517 
     20800         119   0.074555191    0.093590559    0.057776374    0.0069939176 
     20900         119   0.064327354    0.08075136     0.051893576    0.0063498509 
     21000         119   0.063263483    0.079415861    0.050320991    0.010574745  
     21100         119   0.055101774    0.069170312    0.045728126    0.006497557  
     21200         119   0.053647078    0.067344205    0.044816123    0.0059295475 
     21300         119   0.044572665    0.05595292     0.039481642    0.0056879081 
     21400         119   0.034552469    0.043374376    0.031696544    0.0044296319 
     21500         119   0.034796597    0.043680835    0.032020083    0.0048451719 
     21600         119   0.026343572    0.03306959     0.025808048    0.0041377306 
     21700         119   0.026019302    0.032662528    0.025491815    0.0041432588 
     21800         119   0.028898781    0.036277193    0.028052106    0.004496634  
     21900         119   0.029652084    0.037222829    0.028616868    0.0036734343 
     22000         119   0.023653422    0.029692594    0.02467034     0.0024723883 
     22100         119   0.023607781    0.0296353      0.024656377    0.0025594444 
     22200         119   0.021821362    0.027392773    0.023131065    0.0027183612 
     22300         119   0.018354806    0.023041139    0.021242948    0.0016665262 
     22400         119   0.019196797    0.024098106    0.021839436    0.0026432656 
     22500         119   0.018250371    0.02291004     0.021160991    0.0047675204 
     22600         119   0.019640358    0.024654918    0.021852908    0.0049633793 
     22700         119   0.0149278      0.018739154    0.017908988    0.001710154  
     22800         119   0.01338257     0.016799397    0.016175991    0.0033212272 
     22900         119   0.013411381    0.016835563    0.015872731    0.0030978547 
     23000         119   0.013136999    0.016491126    0.015447481    0.0026450333 
     23100         119   0.01332155     0.016722797    0.015311749    0.0022757689 
     23200         119   0.011652503    0.01462761     0.013599511    0.0041156184 
     23300         119   0.01166629     0.014644917    0.014110561    0.0018301659 
     23400         119   0.0099416828   0.012479985    0.01278896     0.0033841756 
     23500         119   0.010383175    0.013034198    0.01290144     0.0025007055 
     23600         119   0.0096627745   0.012129866    0.012162936    0.0026043425 
     23700         119   0.0099679417   0.012512948    0.012277754    0.0041598138 
     23800         119   0.010842341    0.013610598    0.013194171    0.0018284909 
     23900         119   0.0089616386   0.011249717    0.011389612    0.0034666211 
     24000         119   0.0090863472   0.011406266    0.011464098    0.0041511078 
     24100         119   0.0098009309   0.012303296    0.011877097    0.0012959213 
     24200         119   0.010396705    0.013051183    0.011931582    0.0024286823 
     24300         119   0.0064431439   0.0080882019   0.0091132484   0.0032992144 
     24400         119   0.0051991691   0.0065266166   0.0082001055   0.0017627508 
     24500         119   0.0061703667   0.0077457794   0.008977142    0.0039740943 
     24600         119   0.0053917417   0.0067683566   0.0087215052   0.0011884    
     24700         119   0.0053203046   0.0066786802   0.008787449    0.0017521005 
     24800         119   0.0053466318   0.0067117293   0.0086962835   0.0018431346 
     24900         119   0.0050940159   0.0063946157   0.008578046    0.0021273164 
     25000         119   0.0049284939   0.0061868328   0.0081197333   0.0027944126 
Loop time of 0.348086 on 1 procs for 5000 steps with 119 atoms

Performance: 6205360.565 tau/day, 14364.261 timesteps/s, 1.709 Matom-step/s
99.8% CPU use with 1 MPI tasks x no OpenMP threads

MPI task timing breakdown:
Section |  min time  |  avg time  |  max time  |%varavg| %total
---------------------------------------------------------------
Pair    | 0.31549    | 0.31549    | 0.31549    |   0.0 | 90.64
Neigh   | 0.018358   | 0.018358   | 0.018358   |   0.0 |  5.27
Comm    | 0.00056124 | 0.00056124 | 0.00056124 |   0.0 |  0.16
Output  | 0.00040228 | 0.00040228 | 0.00040228 |   0.0 |  0.12
Modify  | 0.011361   | 0.011361   | 0.011361   |   0.0 |  3.26
Other   |            | 0.001912   |            |       |  0.55

Nlocal:            119 ave         119 max         119 min
Histogram: 1 0 0 0 0 0 0 0 0 0
Nghost:              0 ave           0 max           0 min
Histogram: 1 0 0 0 0 0 0 0 0 0
Neighs:              0 ave           0 max           0 min
Histogram: 1 0 0 0 0 0 0 0 0 0

Total # of neighbors = 0
Ave neighs/atom = 0
Neighbor list builds = 223
Dangerous builds = 0

Total wall time: 0:00:02
