LAMMPS (30 Mar 2026 - Development - patch_30Mar2026-1866-g8c37a7495f)
units           lj
atom_style      hybrid tri sphere 1
WARNING: Per-atom field radius is used in multiple sub-styles; must be used consistently (../atom_vec_hybrid.cpp:190)
WARNING: Per-atom field rmass is used in multiple sub-styles; must be used consistently (../atom_vec_hybrid.cpp:190)
atom_modify     map array
boundary        f f f
dimension       3
comm_modify     vel yes cutoff 1.0

region          box block -2 2 -2 16 -2 7 units box
create_box      2 box
Created orthogonal box = (-2 -2 -2) to (2 16 7)
  1 by 1 by 1 MPI processor grid

pair_style      hybrid granular surf/granular
pair_coeff      1 * surf/granular hertz 1.0 1.0 tangential linear_history 1.0 1.0 0.1
pair_coeff      1 1 granular hertz 1.0 1.0 tangential linear_history 1.0 1.0 0.1
pair_coeff      2 2 none

region          insert_region cylinder z 0 12 1.6 3 5 side in units box

group           sphere type 1
0 atoms in group sphere

fix             1 all surface/local input stl 2 1 surf.container.stl                                     input stl 2 2 surf.helix.stl flat 10.0
Reading STL object  from text file surf.container.stl
Reading STL object  from text file surf.helix.stl
Fix surface/local triangle creation:
  17231 tris
  26161 tri edges
  8924 tri corner points
  25532 edge connections
  75948 corner point connections
  629 free edges
  2 free corner points
  0.12617810134351526 min edge length
  0.28884815620675597 max edge length
  0.010216563026334849 min tri area
  0.02626556938563712 max tri area
fix             2 sphere nve/sphere
fix             3 sphere gravity 1e-5 vector 0 0 -1
fix             4 sphere pour 200 1 7892374 region insert_region diam range 0.5 1.0

group           corkscrew molecule 2
3642 atoms in group corkscrew

compute         1 all ke

timestep        0.05
thermo          1000
thermo_style    custom step ke atoms c_1
thermo_modify   lost ignore

#dump            1 all custom 1000 atomDump id type radius mol x y z

#dump            viz all image 1000 myimage-*.ppm type diameter tri atom 1 0.2 #                size 600 600 zoom 2.5 shiny 0.2 fsaa yes view 80 -120 box yes 0.025 #                subbox no 0.0 axes no 0.0 0.0 center s 0.5 0.5 0.5
#dump_modify     viz pad 9 acolor 1 purple acolor 2 steelblue boxcolor midnightblue #                backcolor black backcolor2 white atrans 2 0.5 #                lights 0.2 0.9 0.45 0.9


fix             5 corkscrew move rotate 0 0 0 0 1 0 1000 units box

run             80000
Generated 0 of 1 mixed pair_coeff terms from geometric mixing rule
Particle insertion: 7 every 12649 steps, 200 by step 354173
Neighbor list info ...
  update: every = 1 steps, delay = 0 steps, check = yes
  max neighbors/atom: 2000, page size: 100000
  master list distance cutoff = 1.3
  ghost atom cutoff = 1.3
  binsize = 0.65, bins = 7 28 14
  3 neighbor lists, perpetual/occasional/extra = 3 0 0
  (1) pair granular, perpetual, skip from (3)
      attributes: half, newton on, size, history, off2on
      pair build: skip/size/off2on
      stencil: none
      bin: none
  (2) pair surf/granular, perpetual, skip from (3)
      attributes: half, newton on, size, history, onesided, off2on
      pair build: skip/size/off2on/oneside
      stencil: none
      bin: none
  (3) neighbor class addition, perpetual
      attributes: half, newton off, size, history
      pair build: half/size/bin/atomonly/newtoff
      stencil: full/bin/3d
      bin: standard
WARNING: Communication cutoff adjusted to 1.3 (../comm.cpp:703)
Per MPI rank memory allocation (min/avg/max) = 32.75 | 32.75 | 32.75 Mbytes
   Step         KinEng        Atoms         c_1      
         0   0                  17231   0            
      1000   1.0076193e-07      17238   1.0076193e-07
      2000   1.0095969e-07      17238   1.0095969e-07
      3000   1.0118378e-07      17238   1.0118378e-07
      4000   1.0143421e-07      17238   1.0143421e-07
      5000   1.0171098e-07      17238   1.0171098e-07
      6000   1.0201408e-07      17238   1.0201408e-07
      7000   1.0234353e-07      17238   1.0234353e-07
      8000   1.026993e-07       17238   1.026993e-07 
      9000   1.0308142e-07      17238   1.0308142e-07
     10000   1.0349033e-07      17238   1.0349033e-07
     11000   1.043809e-07       17238   1.043809e-07 
     12000   1.0478601e-07      17238   1.0478601e-07
     13000   1.0583639e-07      17245   1.0583639e-07
     14000   1.0480091e-07      17245   1.0480091e-07
     15000   1.0487041e-07      17245   1.0487041e-07
     16000   1.0536193e-07      17245   1.0536193e-07
     17000   1.0552401e-07      17245   1.0552401e-07
     18000   1.0514907e-07      17245   1.0514907e-07
     19000   1.0545001e-07      17245   1.0545001e-07
     20000   1.053328e-07       17245   1.053328e-07 
     21000   1.054722e-07       17245   1.054722e-07 
     22000   1.0569269e-07      17245   1.0569269e-07
     23000   1.0543475e-07      17245   1.0543475e-07
     24000   1.0516302e-07      17245   1.0516302e-07
     25000   1.0550551e-07      17245   1.0550551e-07
     26000   1.0676784e-07      17252   1.0676784e-07
     27000   1.0662233e-07      17252   1.0662233e-07
     28000   1.0663013e-07      17252   1.0663013e-07
     29000   1.0680923e-07      17252   1.0680923e-07
     30000   1.0704879e-07      17252   1.0704879e-07
     31000   1.0756604e-07      17252   1.0756604e-07
     32000   1.0738397e-07      17252   1.0738397e-07
     33000   1.0771901e-07      17252   1.0771901e-07
     34000   1.0749376e-07      17251   1.0749376e-07
     35000   1.0814303e-07      17251   1.0814303e-07
     36000   1.0825023e-07      17251   1.0825023e-07
     37000   1.0755452e-07      17251   1.0755452e-07
     38000   1.0760584e-07      17258   1.0760584e-07
     39000   1.0790624e-07      17258   1.0790624e-07
     40000   1.0721666e-07      17258   1.0721666e-07
     41000   1.0729112e-07      17258   1.0729112e-07
     42000   1.0720728e-07      17258   1.0720728e-07
     43000   1.0695862e-07      17258   1.0695862e-07
     44000   1.0727026e-07      17258   1.0727026e-07
     45000   1.0741077e-07      17258   1.0741077e-07
     46000   1.0790766e-07      17258   1.0790766e-07
     47000   1.0748658e-07      17258   1.0748658e-07
     48000   1.070959e-07       17258   1.070959e-07 
     49000   1.0803389e-07      17258   1.0803389e-07
     50000   1.0839397e-07      17258   1.0839397e-07
     51000   1.091742e-07       17265   1.091742e-07 
     52000   1.0912092e-07      17265   1.0912092e-07
     53000   1.0915522e-07      17265   1.0915522e-07
     54000   1.0913653e-07      17265   1.0913653e-07
     55000   1.0838755e-07      17265   1.0838755e-07
     56000   1.0888483e-07      17265   1.0888483e-07
     57000   1.0865917e-07      17265   1.0865917e-07
     58000   1.0876702e-07      17265   1.0876702e-07
     59000   1.0854181e-07      17265   1.0854181e-07
     60000   1.0912913e-07      17265   1.0912913e-07
     61000   1.0868374e-07      17265   1.0868374e-07
     62000   1.0981412e-07      17265   1.0981412e-07
     63000   1.0912673e-07      17265   1.0912673e-07
     64000   1.0920274e-07      17272   1.0920274e-07
     65000   1.0805712e-07      17272   1.0805712e-07
     66000   1.0790915e-07      17272   1.0790915e-07
     67000   1.0794546e-07      17272   1.0794546e-07
     68000   1.0720654e-07      17272   1.0720654e-07
     69000   1.0741369e-07      17272   1.0741369e-07
     70000   1.0780328e-07      17272   1.0780328e-07
     71000   1.0866637e-07      17272   1.0866637e-07
     72000   1.0913664e-07      17272   1.0913664e-07
     73000   1.0942487e-07      17272   1.0942487e-07
     74000   1.0911412e-07      17272   1.0911412e-07
     75000   1.0857975e-07      17272   1.0857975e-07
     76000   1.0951249e-07      17279   1.0951249e-07
     77000   1.1016477e-07      17279   1.1016477e-07
     78000   1.1008849e-07      17279   1.1008849e-07
     79000   1.0966512e-07      17279   1.0966512e-07
     80000   1.1047812e-07      17279   1.1047812e-07
Loop time of 113.61 on 1 procs for 80000 steps with 17279 atoms

Performance: 3041989.801 tau/day, 704.164 timesteps/s, 12.167 Matom-step/s
99.0% CPU use with 1 MPI tasks x no OpenMP threads

MPI task timing breakdown:
Section |  min time  |  avg time  |  max time  |%varavg| %total
---------------------------------------------------------------
Pair    | 67.853     | 67.853     | 67.853     |   0.0 | 59.72
Neigh   | 15.435     | 15.435     | 15.435     |   0.0 | 13.59
Comm    | 0.22166    | 0.22166    | 0.22166    |   0.0 |  0.20
Output  | 0.010156   | 0.010156   | 0.010156   |   0.0 |  0.01
Modify  | 23.908     | 23.908     | 23.908     |   0.0 | 21.04
Other   |            | 6.183      |            |       |  5.44

Nlocal:          17279 ave       17279 max       17279 min
Histogram: 1 0 0 0 0 0 0 0 0 0
Nghost:              0 ave           0 max           0 min
Histogram: 1 0 0 0 0 0 0 0 0 0
Neighs:              0 ave           0 max           0 min
Histogram: 1 0 0 0 0 0 0 0 0 0

Total # of neighbors = 0
Ave neighs/atom = 0
Neighbor list builds = 323
Dangerous builds = 0
Total wall time: 0:01:54
