LAMMPS (10 Dec 2025 - Development - patch_10Dec2025-1117-gc6f63e885c-modified)
# pouring spheres into box made of triangles

units		    lj
atom_style	    sphere
boundary        f f f
dimension	    3
comm_modify     vel yes

region          box block -10 10 -10 10 -10 10 units box
create_box	    2 box   # simply for dump_modify to color lines = green
Created orthogonal box = (-10 -10 -10) to (10 10 10)
  1 by 1 by 1 MPI processor grid

pair_style	    granular
pair_coeff	    * * hooke 4000.0 100.0                     tangential linear_history 1000.0 1.0 0.5 				    damping mass_velocity

neighbor	    0.3 bin
neigh_modify	delay 0 every 1 check yes

molecule        tris surf.tribox
Read molecule template tris:
LAMMPS data file for tri box
  1 molecules
  0 fragments
  0 bodies
  0 atoms with max type 0
  0 bonds with max type 0
  0 angles with max type 0
  0 dihedrals with max type 0
  0 impropers with max type 0
  24 triangles

fix             20 all surface/global input mol tris                 model * * granular hooke 4000.0 100.0                     tangential linear_history 1000.0 1.0 0.5                     damping mass_velocity
Fix surface/global triangle creation:
  24 tris
  36 tri edges
  14 tri corner points
  36 edge connections
  84 corner point connections
  0 free edges
  0 free corner points
  8.48528137423857 min edge length
  12 max edge length
  36 min tri area
  36 max tri area

fix             2 all nve/sphere
fix		        3 all gravity 1.0 vector 0 0 -1

region          slab block -2 2 -2 2 -2 2 units box
fix             ins all pour 100 1 4767548 vol 0.4 10 	            diam one 1.0 region slab ignore

timestep	    0.005

compute         1 all temp
compute_modify  1 dynamic/dof yes

compute         2 all temp/sphere
compute_modify  2 dynamic/dof yes

thermo		    100
thermo_style	custom step atoms temp c_1 c_2 press
thermo_modify   lost ignore
compute_modify  thermo_temp dynamic/dof yes

#dump		    2 all image 100 tmp.image.*.ppm type type #		        zoom 1.4 adiam 1.0 fix 20 type 2 0.5
#dump_modify	    2 pad 5

run	            5000
Generated 0 of 1 mixed pair_coeff terms from geometric mixing rule
Particle insertion: 48 every 566 steps, 100 by step 1133
Neighbor list info ...
  update: every = 1 steps, delay = 0 steps, check = yes
  max neighbors/atom: 2000, page size: 100000
  master list distance cutoff = 1.3
  ghost atom cutoff = 1.3
  binsize = 0.65, bins = 31 31 31
  1 neighbor lists, perpetual/occasional/extra = 1 0 0
  (1) pair granular, perpetual
      attributes: half, newton on, size, history
      pair build: half/size/bin/atomonly/newton
      stencil: half/bin/3d
      bin: standard
Per MPI rank memory allocation (min/avg/max) = 11.66 | 11.66 | 11.66 Mbytes
   Step        Atoms         Temp           c_1            c_2           Press     
         0           0   0              0              0              0            
WARNING: Fewer insertions than requested (../fix_pour.cpp:691)
       100          30   0.803783       0.803783       0.39507978     0.0029137134 
       200          30   1.1967995      1.1967995      0.5882574      0.0043383984 
       300          30   1.2814686      1.2814686      0.62987441     0.0046453238 
       400          30   0.82831733     0.82831733     0.4099129      0.0030026503 
       500          30   0.83212308     0.83212308     0.4151854      0.0036386707 
WARNING: Fewer insertions than requested (../fix_pour.cpp:691)
       600          64   0.51244801     0.51244801     0.26324732     0.0040355281 
       700          64   0.58463368     0.58463368     0.29927695     0.0077364467 
       800          64   0.62279618     0.62279618     0.31820922     0.004914821  
       900          64   0.53272146     0.53272146     0.27927993     0.0041951815 
      1000          64   0.48924648     0.48924648     0.25803281     0.003982541  
      1100          64   0.50058399     0.50058399     0.26562484     0.009853843  
WARNING: Fewer insertions than requested (../fix_pour.cpp:691)
      1200          99   0.45803354     0.45803354     0.24120399     0.0079284525 
      1300          99   0.43484749     0.43484749     0.22966323     0.0056127164 
      1400          99   0.40288706     0.40288706     0.21364823     0.0078674832 
      1500          99   0.34733977     0.34733977     0.18616333     0.0067151977 
      1600          99   0.28819295     0.28819295     0.15822019     0.0052082754 
      1700         100   0.21578513     0.21578513     0.1197384      0.0093482424 
      1800         100   0.15201674     0.15201674     0.087755655    0.0018903706 
      1900         100   0.097651638    0.097651638    0.060613057    0.0012125476 
      2000         100   0.080446884    0.080446884    0.050843051    0.0011805459 
      2100         100   0.060462064    0.060462064    0.038699629    0.00091547224
      2200         100   0.055797216    0.055797216    0.034678433    0.0010429231 
      2300         100   0.029445764    0.029445764    0.020498768    0.00041730526
      2400         100   0.021558224    0.021558224    0.015580561    0.0010549366 
      2500         100   0.016107539    0.016107539    0.011835617    0.00096936952
      2600         100   0.010553326    0.010553326    0.0081566546   0.00075220073
      2700         100   0.0058037408   0.0058037408   0.0047089107   0.00096906447
      2800         100   0.0046005368   0.0046005368   0.0038230646   0.0001322552 
      2900         100   0.0036309427   0.0036309427   0.0030707533   0.00022020006
      3000         100   0.0036227037   0.0036227037   0.0029884623   0.00028624309
      3100         100   0.0029815873   0.0029815873   0.0025673745   0.0002359555 
      3200         100   0.0026436707   0.0026436707   0.002314375    0.00012056061
      3300         100   0.0026070557   0.0026070557   0.0021498985   0.00017765035
      3400         100   0.0018641579   0.0018641579   0.0016779744   0.00012830023
      3500         100   0.00184517     0.00184517     0.0015859213   7.6712113e-05
      3600         100   0.0014319848   0.0014319848   0.0013104271   9.4026967e-05
      3700         100   0.0010858104   0.0010858104   0.0010163014   5.4154771e-05
      3800         100   0.00089002991  0.00089002991  0.00085756973  0.00024641499
      3900         100   0.00080146522  0.00080146522  0.00078055848  5.6356118e-05
      4000         100   0.00072093977  0.00072093977  0.00071461738  3.472709e-05 
      4100         100   0.00064221386  0.00064221386  0.00064659963  0.00017408583
      4200         100   0.00061006742  0.00061006742  0.00060263323  0.00017657634
      4300         100   0.00057007467  0.00057007467  0.00056050583  5.6282908e-05
      4400         100   0.00043522805  0.00043522805  0.00046633588  4.94669e-05  
      4500         100   0.00041197457  0.00041197457  0.00045133334  7.2876898e-05
      4600         100   0.00039603484  0.00039603484  0.00044644367  6.9693437e-05
      4700         100   0.00035250773  0.00035250773  0.00042063135  5.7812775e-05
      4800         100   0.00032212681  0.00032212681  0.00037272534  9.1425472e-05
      4900         100   0.00066964879  0.00066964879  0.00053883627  7.5618617e-05
      5000         100   0.00020684629  0.00020684629  0.0002737766   2.2102923e-05
Loop time of 0.302832 on 1 procs for 5000 steps with 100 atoms

Performance: 7132675.744 tau/day, 16510.823 timesteps/s, 1.651 Matom-step/s
99.3% CPU use with 1 MPI tasks x no OpenMP threads

MPI task timing breakdown:
Section |  min time  |  avg time  |  max time  |%varavg| %total
---------------------------------------------------------------
Pair    | 0.016638   | 0.016638   | 0.016638   |   0.0 |  5.49
Neigh   | 0.0071711  | 0.0071711  | 0.0071711  |   0.0 |  2.37
Comm    | 0.00059667 | 0.00059667 | 0.00059667 |   0.0 |  0.20
Output  | 0.00036558 | 0.00036558 | 0.00036558 |   0.0 |  0.12
Modify  | 0.27644    | 0.27644    | 0.27644    |   0.0 | 91.28
Other   |            | 0.001624   |            |       |  0.54

Nlocal:            100 ave         100 max         100 min
Histogram: 1 0 0 0 0 0 0 0 0 0
Nghost:              0 ave           0 max           0 min
Histogram: 1 0 0 0 0 0 0 0 0 0
Neighs:            182 ave         182 max         182 min
Histogram: 1 0 0 0 0 0 0 0 0 0

Total # of neighbors = 182
Ave neighs/atom = 1.82
Neighbor list builds = 277
Dangerous builds = 0

fix_modify      20 move * rotate 0 0 0 0 0 1 25
Fix_modify move:
  turned on motion for 24 surfs
run	            5000
Generated 0 of 1 mixed pair_coeff terms from geometric mixing rule
Per MPI rank memory allocation (min/avg/max) = 16.42 | 16.42 | 16.42 Mbytes
   Step        Atoms         Temp           c_1            c_2           Press     
      5000         100   0.00020684629  0.00020684629  0.0002737766   3.019733e-05 
      5100         100   0.14384281     0.14384281     0.081127449    0.0019065782 
      5200         100   0.16298024     0.16298024     0.093259137    0.002762429  
      5300         100   0.17619209     0.17619209     0.096347219    0.0023910849 
      5400         100   0.19007024     0.19007024     0.10087509     0.0040206769 
      5500         100   0.20506659     0.20506659     0.10710405     0.0024174657 
      5600         100   0.21830893     0.21830893     0.11287925     0.0037980737 
      5700         100   0.23162925     0.23162925     0.1194292      0.0029739461 
      5800         100   0.23855032     0.23855032     0.12207471     0.0045446163 
      5900         100   0.24745535     0.24745535     0.12625514     0.0039742301 
      6000         100   0.25748915     0.25748915     0.13127313     0.0037847502 
      6100         100   0.26478324     0.26478324     0.13505501     0.003512772  
      6200         100   0.26081322     0.26081322     0.13317041     0.0049566708 
      6300         100   0.27430991     0.27430991     0.1394233      0.0039884973 
      6400         100   0.27830923     0.27830923     0.14130334     0.0041397842 
      6500         100   0.28845036     0.28845036     0.14616117     0.0043667642 
      6600         100   0.29460024     0.29460024     0.14901352     0.005369853  
      6700         100   0.30488745     0.30488745     0.1537305      0.0073061432 
      6800         100   0.30971613     0.30971613     0.15589636     0.0054802866 
      6900         100   0.31166578     0.31166578     0.1566104      0.0058901267 
      7000         100   0.31529452     0.31529452     0.15837618     0.0052659987 
      7100         100   0.31766138     0.31766138     0.15959706     0.0047071724 
      7200         100   0.31542068     0.31542068     0.15857817     0.0053813671 
      7300         100   0.31604778     0.31604778     0.15887671     0.0051390285 
      7400         100   0.31862692     0.31862692     0.16024405     0.0051792762 
      7500         100   0.3205806      0.3205806      0.16106952     0.0051783865 
      7600         100   0.32371384     0.32371384     0.16252635     0.0051783576 
      7700         100   0.3262665      0.3262665      0.16369315     0.0059437727 
      7800         100   0.32426943     0.32426943     0.1626325      0.0051324171 
      7900         100   0.32680871     0.32680871     0.16390366     0.0051198308 
      8000         100   0.32698594     0.32698594     0.16380325     0.004973827  
      8100         100   0.3298923      0.3298923      0.16518691     0.0054201424 
      8200         100   0.33317634     0.33317634     0.16679468     0.0057000412 
      8300         100   0.33378622     0.33378622     0.16686811     0.006509886  
      8400         100   0.33509157     0.33509157     0.16748207     0.0050175218 
      8500         100   0.33774149     0.33774149     0.168741       0.0053318883 
      8600         100   0.33828157     0.33828157     0.16906805     0.0053458293 
      8700         100   0.33505909     0.33505909     0.16747971     0.0054499516 
      8800         100   0.33481915     0.33481915     0.16735873     0.0057545984 
      8900         100   0.33717512     0.33717512     0.1685754      0.005221423  
      9000         100   0.33611506     0.33611506     0.16810037     0.0058852235 
      9100         100   0.3365385      0.3365385      0.16818215     0.0056275438 
      9200         100   0.33789518     0.33789518     0.16891227     0.0054196612 
      9300         100   0.338145       0.338145       0.16903591     0.0061670969 
      9400         100   0.33686211     0.33686211     0.16839264     0.0062963182 
      9500         100   0.33758269     0.33758269     0.16870165     0.0057273949 
      9600         100   0.33697411     0.33697411     0.16833401     0.0068245027 
      9700         100   0.33788804     0.33788804     0.1687481      0.0055584172 
      9800         100   0.3398758      0.3398758      0.16975756     0.0058283851 
      9900         100   0.34051024     0.34051024     0.17009185     0.0057155581 
     10000         100   0.34007766     0.34007766     0.16984451     0.0053734304 
Loop time of 0.602651 on 1 procs for 5000 steps with 100 atoms

Performance: 3584165.289 tau/day, 8296.679 timesteps/s, 829.668 katom-step/s
99.8% CPU use with 1 MPI tasks x no OpenMP threads

MPI task timing breakdown:
Section |  min time  |  avg time  |  max time  |%varavg| %total
---------------------------------------------------------------
Pair    | 0.048983   | 0.048983   | 0.048983   |   0.0 |  8.13
Neigh   | 0.0096904  | 0.0096904  | 0.0096904  |   0.0 |  1.61
Comm    | 0.0006294  | 0.0006294  | 0.0006294  |   0.0 |  0.10
Output  | 0.00036589 | 0.00036589 | 0.00036589 |   0.0 |  0.06
Modify  | 0.54121    | 0.54121    | 0.54121    |   0.0 | 89.80
Other   |            | 0.001772   |            |       |  0.29

Nlocal:            100 ave         100 max         100 min
Histogram: 1 0 0 0 0 0 0 0 0 0
Nghost:              0 ave           0 max           0 min
Histogram: 1 0 0 0 0 0 0 0 0 0
Neighs:            190 ave         190 max         190 min
Histogram: 1 0 0 0 0 0 0 0 0 0

Total # of neighbors = 190
Ave neighs/atom = 1.9
Neighbor list builds = 334
Dangerous builds = 0

fix_modify      20 move * none
Fix_modify move:
  turned off motion for 0 surfs
run             5000
Generated 0 of 1 mixed pair_coeff terms from geometric mixing rule
Per MPI rank memory allocation (min/avg/max) = 16.41 | 16.41 | 16.41 Mbytes
   Step        Atoms         Temp           c_1            c_2           Press     
     10000         100   0.34007766     0.34007766     0.16984451     0.0053836667 
     10100         100   0.090939785    0.090939785    0.053470385    0.003982284  
     10200         100   0.051735389    0.051735389    0.037440432    0.00092602409
     10300         100   0.044292963    0.044292963    0.033142824    0.0017812762 
     10400         100   0.038407573    0.038407573    0.028462125    0.00054618122
     10500         100   0.033813999    0.033813999    0.024972812    0.00048920381
     10600         100   0.029780085    0.029780085    0.022253896    0.00043011152
     10700         100   0.026447062    0.026447062    0.019770644    0.0015432801 
     10800         100   0.021061322    0.021061322    0.015958118    0.00033570154
     10900         100   0.018213668    0.018213668    0.013925374    0.00032121764
     11000         100   0.014283214    0.014283214    0.011086706    0.00056510485
     11100         100   0.011940386    0.011940386    0.0092573169   0.00035737384
     11200         100   0.010075814    0.010075814    0.0078652085   0.00014919572
     11300         100   0.0094878402   0.0094878402   0.0073864098   0.00014794428
     11400         100   0.0087306107   0.0087306107   0.0068193173   0.00016547135
     11500         100   0.0080873636   0.0080873636   0.0063560673   7.0984161e-05
     11600         100   0.007403461    0.007403461    0.0058000925   0.00011723462
     11700         100   0.0069904061   0.0069904061   0.0054927192   0.00011074695
     11800         100   0.006474306    0.006474306    0.0050851554   0.00027967301
     11900         100   0.005683785    0.005683785    0.004532888    0.00012701602
     12000         100   0.0050983074   0.0050983074   0.004040492    0.00037443077
     12100         100   0.0047310234   0.0047310234   0.0037824972   0.00010361731
     12200         100   0.0045681317   0.0045681317   0.0036627913   6.8436534e-05
     12300         100   0.0045617314   0.0045617314   0.0036018681   7.2698123e-05
     12400         100   0.0040176075   0.0040176075   0.0032493403   4.9717893e-05
     12500         100   0.0038702806   0.0038702806   0.0031420926   4.7894723e-05
     12600         100   0.0035416966   0.0035416966   0.0029080015   4.4335124e-05
     12700         100   0.003189268    0.003189268    0.0026374445   4.5899456e-05
     12800         100   0.0030882224   0.0030882224   0.0025520111   0.00011037187
     12900         100   0.002811554    0.002811554    0.0023482894   0.00024949719
     13000         100   0.0025329913   0.0025329913   0.0021246995   3.1345767e-05
     13100         100   0.0024690442   0.0024690442   0.0020786512   5.3572214e-05
     13200         100   0.0023258309   0.0023258309   0.001970355    3.0343288e-05
     13300         100   0.0023166736   0.0023166736   0.0019593918   2.8668836e-05
     13400         100   0.0021223953   0.0021223953   0.0017820549   3.6430804e-05
     13500         100   0.0020265831   0.0020265831   0.0017084779   2.5487682e-05
     13600         100   0.0019854368   0.0019854368   0.0016751752   2.4569781e-05
     13700         100   0.0019650592   0.0019650592   0.0016574341   2.6741087e-05
     13800         100   0.0019192921   0.0019192921   0.0016165898   2.9220141e-05
     13900         100   0.0018297877   0.0018297877   0.0015512208   2.2643622e-05
     14000         100   0.001793602    0.001793602    0.0015244839   2.1623971e-05
     14100         100   0.0017348483   0.0017348483   0.0014626849   2.1468748e-05
     14200         100   0.0016711814   0.0016711814   0.0014072518   4.5515388e-05
     14300         100   0.0015773132   0.0015773132   0.0013237953   1.6368478e-05
     14400         100   0.0014385079   0.0014385079   0.0012155992   2.0081599e-05
     14500         100   0.0013869408   0.0013869408   0.0011707517   1.6579556e-05
     14600         100   0.0013740455   0.0013740455   0.0011585899   4.1908866e-05
     14700         100   0.0012249791   0.0012249791   0.0010493291   1.3119942e-05
     14800         100   0.001148174    0.001148174    0.00099579376  4.5535768e-05
     14900         100   0.0011329718   0.0011329718   0.00098701238  1.323075e-05 
     15000         100   0.0011104005   0.0011104005   0.00096925966  1.3741206e-05
Loop time of 0.36123 on 1 procs for 5000 steps with 100 atoms

Performance: 5979563.728 tau/day, 13841.583 timesteps/s, 1.384 Matom-step/s
99.8% CPU use with 1 MPI tasks x no OpenMP threads

MPI task timing breakdown:
Section |  min time  |  avg time  |  max time  |%varavg| %total
---------------------------------------------------------------
Pair    | 0.017135   | 0.017135   | 0.017135   |   0.0 |  4.74
Neigh   | 0.0023508  | 0.0023508  | 0.0023508  |   0.0 |  0.65
Comm    | 0.0005025  | 0.0005025  | 0.0005025  |   0.0 |  0.14
Output  | 0.00034999 | 0.00034999 | 0.00034999 |   0.0 |  0.10
Modify  | 0.3392     | 0.3392     | 0.3392     |   0.0 | 93.90
Other   |            | 0.001695   |            |       |  0.47

Nlocal:            100 ave         100 max         100 min
Histogram: 1 0 0 0 0 0 0 0 0 0
Nghost:              0 ave           0 max           0 min
Histogram: 1 0 0 0 0 0 0 0 0 0
Neighs:            163 ave         163 max         163 min
Histogram: 1 0 0 0 0 0 0 0 0 0

Total # of neighbors = 163
Ave neighs/atom = 1.63
Neighbor list builds = 81
Dangerous builds = 0

fix_modify      20 move * rotate 0 0 0 1 1 1 25
Fix_modify move:
  turned on motion for 24 surfs
run	            5000
Generated 0 of 1 mixed pair_coeff terms from geometric mixing rule
Per MPI rank memory allocation (min/avg/max) = 16.42 | 16.42 | 16.42 Mbytes
   Step        Atoms         Temp           c_1            c_2           Press     
     15000         100   0.0011104005   0.0011104005   0.00096925966  1.3741206e-05
     15100         100   0.15296405     0.15296405     0.091422757    0.0034840109 
     15200         100   0.18979551     0.18979551     0.1130503      0.003832118  
     15300         100   0.21618221     0.21618221     0.12669381     0.0097910885 
     15400         100   0.21052152     0.21052152     0.12471744     0.0069140805 
     15500         100   0.23737987     0.23737987     0.13635395     0.010795893  
     15600         100   0.25629932     0.25629932     0.14454757     0.011691773  
     15700         100   0.25758561     0.25758561     0.143203       0.012658668  
     15800         100   0.25936695     0.25936695     0.14039491     0.018197618  
     15900         100   0.29629056     0.29629056     0.15464312     0.010021577  
     16000         100   0.30980415     0.30980415     0.16150621     0.015656105  
     16100         100   0.30602169     0.30602169     0.15616157     0.021024655  
     16200         100   0.3023371      0.3023371      0.1549298      0.010336234  
     16300         100   0.30671998     0.30671998     0.156697       0.0094970102 
     16400         100   0.29664351     0.29664351     0.15209543     0.014233595  
     16500         100   0.28840574     0.28840574     0.14744482     0.008952444  
     16600         100   0.31159692     0.31159692     0.15963577     0.023771379  
     16700         100   0.31858178     0.31858178     0.16260194     0.0086382223 
     16800         100   0.29680193     0.29680193     0.15192379     0.010773605  
     16900         100   0.26917079     0.26917079     0.13845249     0.011070345  
     17000         100   0.26606074     0.26606074     0.13791566     0.0083941149 
     17100         100   0.25017909     0.25017909     0.13142608     0.0059186852 
     17200         100   0.25208006     0.25208006     0.13335669     0.0062641131 
     17300         100   0.29991528     0.29991528     0.15868257     0.0060500049 
     17400         100   0.35053399     0.35053399     0.18613834     0.0062176978 
     17500         100   0.42308625     0.42308625     0.22624985     0.010353355  
     17600         100   0.47525105     0.47525105     0.25641212     0.0092496138 
     17700         100   0.50479561     0.50479561     0.2740443      0.01152972   
     17800         100   0.60763843     0.60763843     0.3278404      0.0077158305 
     17900         100   0.60723546     0.60723546     0.33211842     0.012141468  
     18000         100   0.52360297     0.52360297     0.2882998      0.021512911  
     18100         100   0.49592388     0.49592388     0.274871       0.013141309  
     18200         100   0.43890275     0.43890275     0.24803314     0.0063263614 
     18300         100   0.40678029     0.40678029     0.23322684     0.006559997  
     18400         100   0.35352971     0.35352971     0.20611651     0.0073022624 
     18500         100   0.30410513     0.30410513     0.18352588     0.0060430733 
     18600         100   0.28901982     0.28901982     0.179641       0.0059218718 
     18700         100   0.28446098     0.28446098     0.1825261      0.0041178849 
     18800         100   0.30720645     0.30720645     0.19785965     0.0044634025 
     18900         100   0.32831678     0.32831678     0.21406261     0.0061286761 
     19000         100   0.31744737     0.31744737     0.20462893     0.0050334823 
     19100         100   0.32251283     0.32251283     0.20086845     0.014892416  
     19200         100   0.32439167     0.32439167     0.19866452     0.008107471  
     19300         100   0.312456       0.312456       0.18908134     0.015299131  
     19400         100   0.3444364      0.3444364      0.20932165     0.0084014827 
     19500         100   0.3213386      0.3213386      0.18853292     0.015765343  
     19600         100   0.34501971     0.34501971     0.19618187     0.010499326  
     19700         100   0.36723478     0.36723478     0.20338792     0.018624697  
     19800         100   0.3821583      0.3821583      0.20600456     0.0083766274 
     19900         100   0.3462431      0.3462431      0.18680496     0.011392391  
     20000         100   0.34173063     0.34173063     0.18262851     0.008952007  
Loop time of 0.372814 on 1 procs for 5000 steps with 100 atoms

Performance: 5793774.398 tau/day, 13411.515 timesteps/s, 1.341 Matom-step/s
99.8% CPU use with 1 MPI tasks x no OpenMP threads

MPI task timing breakdown:
Section |  min time  |  avg time  |  max time  |%varavg| %total
---------------------------------------------------------------
Pair    | 0.037408   | 0.037408   | 0.037408   |   0.0 | 10.03
Neigh   | 0.013503   | 0.013503   | 0.013503   |   0.0 |  3.62
Comm    | 0.0006738  | 0.0006738  | 0.0006738  |   0.0 |  0.18
Output  | 0.00036531 | 0.00036531 | 0.00036531 |   0.0 |  0.10
Modify  | 0.31903    | 0.31903    | 0.31903    |   0.0 | 85.57
Other   |            | 0.001832   |            |       |  0.49

Nlocal:            100 ave         100 max         100 min
Histogram: 1 0 0 0 0 0 0 0 0 0
Nghost:              0 ave           0 max           0 min
Histogram: 1 0 0 0 0 0 0 0 0 0
Neighs:            208 ave         208 max         208 min
Histogram: 1 0 0 0 0 0 0 0 0 0

Total # of neighbors = 208
Ave neighs/atom = 2.08
Neighbor list builds = 416
Dangerous builds = 0

fix_modify      20 move * none
Fix_modify move:
  turned off motion for 0 surfs
run             5000
Generated 0 of 1 mixed pair_coeff terms from geometric mixing rule
Per MPI rank memory allocation (min/avg/max) = 16.41 | 16.41 | 16.41 Mbytes
   Step        Atoms         Temp           c_1            c_2           Press     
     20000         100   0.34173063     0.34173063     0.18262851     0.0089715271 
     20100         100   0.10689455     0.10689455     0.065159799    0.0025260502 
     20200         100   0.10886901     0.10886901     0.064785321    0.0024166516 
     20300         100   0.099525998    0.099525998    0.058879765    0.0032409973 
     20400         100   0.082974547    0.082974547    0.048830962    0.0031617299 
     20500         100   0.082966778    0.082966778    0.048536511    0.0056401249 
     20600         100   0.057141372    0.057141372    0.035136222    0.0052948941 
     20700         100   0.058031643    0.058031643    0.036063719    0.0034039366 
     20800         100   0.043097068    0.043097068    0.029127505    0.0024679126 
     20900         100   0.04603676     0.04603676     0.030785233    0.0019257667 
     21000         100   0.040866726    0.040866726    0.027549463    0.0017241706 
     21100         100   0.031354098    0.031354098    0.022930406    0.0029528799 
     21200         100   0.031768442    0.031768442    0.023333267    0.0025054313 
     21300         100   0.034696805    0.034696805    0.024804507    0.0020613798 
     21400         100   0.036293846    0.036293846    0.025369264    0.0016803065 
     21500         100   0.036584264    0.036584264    0.025526264    0.0013997343 
     21600         100   0.039258041    0.039258041    0.026896642    0.002449786  
     21700         100   0.033213304    0.033213304    0.023078624    0.0030133393 
     21800         100   0.028402567    0.028402567    0.020052904    0.001702858  
     21900         100   0.030193529    0.030193529    0.021046292    0.0011707178 
     22000         100   0.030066129    0.030066129    0.020515605    0.0012753744 
     22100         100   0.028874691    0.028874691    0.019934817    0.00063755965
     22200         100   0.02370851     0.02370851     0.016655477    0.00072009302
     22300         100   0.023984309    0.023984309    0.017056827    0.00065840506
     22400         100   0.020369762    0.020369762    0.015198997    0.00068353526
     22500         100   0.019451585    0.019451585    0.014547625    0.00071656272
     22600         100   0.019793611    0.019793611    0.014432371    0.0014109838 
     22700         100   0.018359285    0.018359285    0.013544459    0.00050380966
     22800         100   0.017225829    0.017225829    0.01256912     0.00080440594
     22900         100   0.015811553    0.015811553    0.011497326    0.00055313746
     23000         100   0.015627476    0.015627476    0.011229929    0.0004761403 
     23100         100   0.014443694    0.014443694    0.010376587    0.0011114937 
     23200         100   0.011178544    0.011178544    0.0081494534   0.00045544481
     23300         100   0.010263349    0.010263349    0.0075694632   0.00024387681
     23400         100   0.010198434    0.010198434    0.0073272001   0.00023134927
     23500         100   0.0086864008   0.0086864008   0.0063728445   0.00024716507
     23600         100   0.008718303    0.008718303    0.0062374754   0.00067939553
     23700         100   0.0078943056   0.0078943056   0.0057673199   0.00019178725
     23800         100   0.0072204999   0.0072204999   0.0053747874   0.00015806675
     23900         100   0.0065324172   0.0065324172   0.0048216083   0.00017541767
     24000         100   0.0053790912   0.0053790912   0.0039991296   0.00018022268
     24100         100   0.0049034179   0.0049034179   0.0036882727   0.00058687513
     24200         100   0.0044646317   0.0044646317   0.0032865163   0.00017824601
     24300         100   0.003793975    0.003793975    0.0028150953   0.00027027625
     24400         100   0.0035110702   0.0035110702   0.0026474675   0.00011098779
     24500         100   0.0034881022   0.0034881022   0.0026281519   0.00011011402
     24600         100   0.0030186101   0.0030186101   0.0022773849   0.00022992676
     24700         100   0.0027220556   0.0027220556   0.0020639617   0.00015686001
     24800         100   0.0023712491   0.0023712491   0.001813554    0.00013574819
     24900         100   0.0023068921   0.0023068921   0.0017622067   0.00018186073
     25000         100   0.0022667121   0.0022667121   0.0017225404   9.2706315e-05
Loop time of 0.343459 on 1 procs for 5000 steps with 100 atoms

Performance: 6288958.844 tau/day, 14557.775 timesteps/s, 1.456 Matom-step/s
99.8% CPU use with 1 MPI tasks x no OpenMP threads

MPI task timing breakdown:
Section |  min time  |  avg time  |  max time  |%varavg| %total
---------------------------------------------------------------
Pair    | 0.030138   | 0.030138   | 0.030138   |   0.0 |  8.77
Neigh   | 0.0056859  | 0.0056859  | 0.0056859  |   0.0 |  1.66
Comm    | 0.00055428 | 0.00055428 | 0.00055428 |   0.0 |  0.16
Output  | 0.00039725 | 0.00039725 | 0.00039725 |   0.0 |  0.12
Modify  | 0.30493    | 0.30493    | 0.30493    |   0.0 | 88.78
Other   |            | 0.001755   |            |       |  0.51

Nlocal:            100 ave         100 max         100 min
Histogram: 1 0 0 0 0 0 0 0 0 0
Nghost:              0 ave           0 max           0 min
Histogram: 1 0 0 0 0 0 0 0 0 0
Neighs:            143 ave         143 max         143 min
Histogram: 1 0 0 0 0 0 0 0 0 0

Total # of neighbors = 143
Ave neighs/atom = 1.43
Neighbor list builds = 179
Dangerous builds = 0
Total wall time: 0:00:02
