LAMMPS (10 Dec 2025 - Development - patch_10Dec2025-1117-gc6f63e885c-modified)
# pouring spheres into box made of triangles

units			lj
atom_style		tri
atom_modify     map array
boundary        f f f
dimension		3
comm_modify     vel yes

region          box block -10 10 -10 10 -10 10 units box
create_box      2 box
Created orthogonal box = (-10 -10 -10) to (10 10 10)
  1 by 1 by 1 MPI processor grid

molecule        tris surf.tribox
Read molecule template tris:
LAMMPS data file for tri box
  1 molecules
  0 fragments
  0 bodies
  0 atoms with max type 0
  0 bonds with max type 0
  0 angles with max type 0
  0 dihedrals with max type 0
  0 impropers with max type 0
  24 triangles
fix             20 all surface/local input mol tris
Fix surface/local triangle creation:
  24 tris
  36 tri edges
  14 tri corner points
  36 edge connections
  84 corner point connections
  0 free edges
  0 free corner points
  8.485281374238568 min edge length
  12.000000000000005 max edge length
  35.999999999999986 min tri area
  36.000000000000036 max tri area

pair_style		hybrid granular surf/granular
pair_coeff		1 1 granular hooke 4000.0 100.0                          tangential linear_history 1000.0 1.0 0.5 						 damping mass_velocity
pair_coeff		1 2 surf/granular hooke 4000.0 100.0                          tangential linear_history 1000.0 1.0 0.5 						 damping mass_velocity
pair_coeff		2 2 none

group           sphere type 1
0 atoms in group sphere
group           tri type 2
24 atoms in group tri

neighbor		0.3 bin
neigh_modify	delay 0 every 1 check yes

fix             2 sphere nve/sphere
fix				3 sphere gravity 1.0 vector 0 0 -1

region          slab block -2 2 -2 2 -2 2 units box
fix             ins sphere pour 100 1 4767548 vol 0.4 10 	        	diam one 1.0 region slab ignore

timestep		0.005

compute         1 sphere temp
compute_modify  1 dynamic/dof yes

compute         2 sphere temp/sphere
compute_modify  2 dynamic/dof yes

thermo			100
thermo_style	custom step atoms temp c_1 c_2 press
thermo_modify   lost ignore
compute_modify  thermo_temp dynamic/dof yes

#dump			2 all image 100 tmp.image.*.ppm type type #				zoom 1.4 adiam 1.0 tri type 2 0.2
#dump_modify		2 pad 5

run	        	5000
Generated 0 of 1 mixed pair_coeff terms from geometric mixing rule
Particle insertion: 48 every 566 steps, 100 by step 1133
Neighbor list info ...
  update: every = 1 steps, delay = 0 steps, check = yes
  max neighbors/atom: 2000, page size: 100000
  master list distance cutoff = 7.1245553
  ghost atom cutoff = 7.1245553
  binsize = 3.5622777, bins = 6 6 6
  3 neighbor lists, perpetual/occasional/extra = 3 0 0
  (1) pair granular, perpetual, skip from (3)
      attributes: half, newton on, size, history, off2on
      pair build: skip/size/off2on
      stencil: none
      bin: none
  (2) pair surf/granular, perpetual, skip from (3)
      attributes: half, newton on, size, history, onesided, off2on
      pair build: skip/size/off2on/oneside
      stencil: none
      bin: none
  (3) neighbor class addition, perpetual
      attributes: half, newton off, size, history
      pair build: half/size/bin/atomonly/newtoff
      stencil: full/bin/3d
      bin: standard
WARNING: Maximum triangle diameter 12.000000000000005 may be less than ghost cutoff 7.124555320336759 (../fix_surface_local.cpp:464)
Per MPI rank memory allocation (min/avg/max) = 18.61 | 18.61 | 18.61 Mbytes
   Step        Atoms         Temp           c_1            c_2           Press     
         0          24   0              0              0              0            
WARNING: Fewer insertions than requested (../fix_pour.cpp:691)
       100          54   0.43980579     0.803783       0.39507978     0.0029137134 
       200          54   0.65485258     1.1967995      0.5882574      0.0043383984 
       300          54   0.70118095     1.2814686      0.62987441     0.0046453238 
       400          54   0.45325721     0.82836663     0.40994817     0.0030286739 
       500          54   0.45475589     0.83110558     0.414729       0.0043230409 
WARNING: Fewer insertions than requested (../fix_pour.cpp:691)
       600          88   0.36933761     0.51003765     0.26258869     0.0037590791 
       700          88   0.42058223     0.58080404     0.29751792     0.0066900783 
       800          88   0.46104238     0.63667757     0.32644388     0.0051500426 
       900          88   0.41290353     0.57020011     0.29762919     0.0068481023 
      1000          88   0.34695571     0.47912932     0.25178552     0.0041029274 
      1100          88   0.33424829     0.46158097     0.2466537      0.0043754037 
WARNING: Fewer insertions than requested (../fix_pour.cpp:691)
      1200         123   0.3614775      0.4500026      0.23713789     0.013930637  
      1300         123   0.34569407     0.43035385     0.22891578     0.0057803728 
      1400         123   0.33079907     0.41181109     0.21811837     0.006524076  
      1500         123   0.28224392     0.35136488     0.1884987      0.0096118932 
      1600         123   0.23213442     0.28898366     0.15802273     0.0064364894 
      1700         124   0.1702388      0.21150881     0.11878896     0.011795079  
      1800         124   0.10610694     0.13182983     0.078458463    0.0045573829 
      1900         124   0.046015478    0.057170745    0.03888914     0.0016732666 
      2000         124   0.04594889     0.057088014    0.03805616     0.0024595954 
      2100         124   0.041808893    0.051944383    0.034414757    0.0020690804 
      2200         124   0.040457691    0.050265616    0.03207721     0.0022557529 
      2300         124   0.018553141    0.023050872    0.017474362    0.0017080378 
      2400         124   0.014711298    0.018277674    0.014286156    0.0011523675 
      2500         124   0.012034545    0.01495201     0.011652046    0.0013935283 
      2600         124   0.0075048587   0.0093242183   0.0077399585   0.0013805118 
      2700         124   0.0045115964   0.0056053168   0.0048779089   0.0016016375 
      2800         124   0.0033270078   0.0041335551   0.0036534953   0.0013870479 
      2900         124   0.0029140629   0.0036205024   0.0031647584   0.0012676673 
      3000         124   0.0026516323   0.0032944522   0.0028509658   0.0011908697 
      3100         124   0.0031863238   0.003958766    0.003152001    0.0013365824 
      3200         124   0.0018561577   0.0023061354   0.0020837281   0.0014644652 
      3300         124   0.0014813269   0.0018404365   0.0017055026   0.0011983942 
      3400         124   0.0012036439   0.0014954364   0.0014320256   0.0011391126 
      3500         124   0.0011235306   0.0013959017   0.0013593067   0.0011899373 
      3600         124   0.0011032618   0.0013707192   0.0012996281   0.0011757391 
      3700         124   0.0012947762   0.0016086613   0.0014144892   0.0011095553 
      3800         124   0.00096777003  0.0012023809   0.0011207822   0.0011207132 
      3900         124   0.0009044325   0.0011236889   0.0010536969   0.0011480289 
      4000         124   0.00086611755  0.0010760854   0.0010158635   0.0012638818 
      4100         124   0.00083874459  0.0010420766   0.00099148253  0.0011139815 
      4200         124   0.00078259223  0.00097231156  0.0009370867   0.0011156417 
      4300         124   0.00052032386  0.00064646298  0.00068102113  0.0011013056 
      4400         124   0.000470711    0.00058482276  0.00062647876  0.0011029812 
      4500         124   0.00044500275  0.0005528822   0.00060298003  0.0011043822 
      4600         124   0.00042348116  0.00052614326  0.00057850998  0.0010966939 
      4700         124   0.00037841204  0.00047014829  0.00053592556  0.0010873335 
      4800         124   0.00033672157  0.00041835104  0.0004960296   0.0010965859 
      4900         124   0.00031031491  0.00038554277  0.000463084    0.0012037176 
      5000         124   0.00027880942  0.00034639958  0.00043064471  0.0011246095 
Loop time of 0.332672 on 1 procs for 5000 steps with 124 atoms

Performance: 6492884.825 tau/day, 15029.826 timesteps/s, 1.864 Matom-step/s
99.8% CPU use with 1 MPI tasks x no OpenMP threads

MPI task timing breakdown:
Section |  min time  |  avg time  |  max time  |%varavg| %total
---------------------------------------------------------------
Pair    | 0.3021     | 0.3021     | 0.3021     |   0.0 | 90.81
Neigh   | 0.016635   | 0.016635   | 0.016635   |   0.0 |  5.00
Comm    | 0.00061001 | 0.00061001 | 0.00061001 |   0.0 |  0.18
Output  | 0.00035262 | 0.00035262 | 0.00035262 |   0.0 |  0.11
Modify  | 0.011015   | 0.011015   | 0.011015   |   0.0 |  3.31
Other   |            | 0.001961   |            |       |  0.59

Nlocal:            124 ave         124 max         124 min
Histogram: 1 0 0 0 0 0 0 0 0 0
Nghost:              0 ave           0 max           0 min
Histogram: 1 0 0 0 0 0 0 0 0 0
Neighs:              0 ave           0 max           0 min
Histogram: 1 0 0 0 0 0 0 0 0 0

Total # of neighbors = 0
Ave neighs/atom = 0
Neighbor list builds = 273
Dangerous builds = 0

fix             1 tri move rotate 0 0 0 0 0 1 25
run	        	5000
Generated 0 of 1 mixed pair_coeff terms from geometric mixing rule
WARNING: Maximum triangle diameter 12.000000000000005 may be less than ghost cutoff 7.124555320336759 (../fix_surface_local.cpp:464)
Per MPI rank memory allocation (min/avg/max) = 19.49 | 19.49 | 19.49 Mbytes
   Step        Atoms         Temp           c_1            c_2           Press     
      5000         124   0.00027880942  0.00034639958  0.00043064471  0.001117173  
      5100         124   5.2267193      0.12366104     0.071133179    0.082251019  
      5200         124   5.2473229      0.14925941     0.088039839    0.082385398  
      5300         124   5.2531167      0.15645775     0.088297063    0.082612932  
      5400         124   5.2693338      0.17660628     0.095964765    0.082005185  
      5500         124   5.2739643      0.18235933     0.098052775    0.082329319  
      5600         124   5.2808142      0.19086976     0.10141323     0.083704628  
      5700         124   5.2882958      0.20016516     0.10508913     0.082717229  
      5800         124   5.2945707      0.20796122     0.10810899     0.082721454  
      5900         124   5.3052795      0.22126617     0.11405544     0.083968289  
      6000         124   5.3108536      0.22819152     0.11730371     0.08392511   
      6100         124   5.3145102      0.2327346      0.11966458     0.08375362   
      6200         124   5.3310009      0.25322305     0.12920314     0.084039525  
      6300         124   5.3357726      0.25915144     0.1313209      0.083875613  
      6400         124   5.3421531      0.26707871     0.13522998     0.084693804  
      6500         124   5.3492155      0.27585323     0.13948746     0.085039483  
      6600         124   5.3520658      0.27939458     0.14112371     0.084482873  
      6700         124   5.3554165      0.28355751     0.14333102     0.084617008  
      6800         124   5.3566086      0.28503859     0.14396056     0.084634802  
      6900         124   5.3602604      0.28957574     0.14614634     0.085327943  
      7000         124   5.3649049      0.29534619     0.14878517     0.086343481  
      7100         124   5.3692925      0.30079744     0.15124772     0.08550926   
      7200         124   5.371358       0.30336365     0.15251078     0.086117662  
      7300         124   5.3760218      0.30915804     0.15539648     0.085503937  
      7400         124   5.3764548      0.30969603     0.15567387     0.085174327  
      7500         124   5.3786761      0.31245586     0.15707315     0.085325932  
      7600         124   5.3788745      0.31270229     0.15717651     0.085993689  
      7700         124   5.3799         0.31397643     0.15786072     0.085459569  
      7800         124   5.3811269      0.3155007      0.15871018     0.08548725   
      7900         124   5.3835766      0.31854432     0.16030495     0.084893043  
      8000         124   5.3832735      0.31816771     0.15986698     0.085246821  
      8100         124   5.3882918      0.32440259     0.16289657     0.086097515  
      8200         124   5.3911414      0.32794303     0.16448586     0.085594433  
      8300         124   5.3932665      0.33058328     0.16572706     0.08577209   
      8400         124   5.3925012      0.32963242     0.16518586     0.087026717  
      8500         124   5.3915886      0.32849866     0.16434153     0.085442181  
      8600         124   5.3923179      0.32940478     0.16485367     0.086367342  
      8700         124   5.3922371      0.3293043      0.1646979      0.086176924  
      8800         124   5.3933464      0.33068251     0.16540464     0.085948479  
      8900         124   5.393418       0.33077153     0.16545278     0.08607809   
      9000         124   5.39421        0.33175555     0.16595433     0.08572439   
      9100         124   5.3942445      0.3317984      0.16599596     0.086433071  
      9200         124   5.3943916      0.3319811      0.16608174     0.08674884   
      9300         124   5.394911       0.33262646     0.16641884     0.085600881  
      9400         124   5.395436       0.33327873     0.16662481     0.086094562  
      9500         124   5.3973384      0.33564234     0.16783024     0.086381054  
      9600         124   5.3978628      0.33629387     0.168159       0.086681002  
      9700         124   5.3973891      0.33570525     0.1679015      0.086161949  
      9800         124   5.3987211      0.33736024     0.16858136     0.086570051  
      9900         124   5.399653       0.33851806     0.16918132     0.08671283   
     10000         124   5.3986614      0.33728606     0.1685424      0.085540839  
Loop time of 0.673539 on 1 procs for 5000 steps with 124 atoms

Performance: 3206940.370 tau/day, 7423.473 timesteps/s, 920.511 katom-step/s
99.5% CPU use with 1 MPI tasks x no OpenMP threads

MPI task timing breakdown:
Section |  min time  |  avg time  |  max time  |%varavg| %total
---------------------------------------------------------------
Pair    | 0.62191    | 0.62191    | 0.62191    |   0.0 | 92.33
Neigh   | 0.025938   | 0.025938   | 0.025938   |   0.0 |  3.85
Comm    | 0.00071735 | 0.00071735 | 0.00071735 |   0.0 |  0.11
Output  | 0.00036134 | 0.00036134 | 0.00036134 |   0.0 |  0.05
Modify  | 0.022499   | 0.022499   | 0.022499   |   0.0 |  3.34
Other   |            | 0.002115   |            |       |  0.31

Nlocal:            124 ave         124 max         124 min
Histogram: 1 0 0 0 0 0 0 0 0 0
Nghost:              0 ave           0 max           0 min
Histogram: 1 0 0 0 0 0 0 0 0 0
Neighs:              0 ave           0 max           0 min
Histogram: 1 0 0 0 0 0 0 0 0 0

Total # of neighbors = 0
Ave neighs/atom = 0
Neighbor list builds = 314
Dangerous builds = 0

unfix           1
set             group tri angmom 0.0 0.0 0.0
Setting atom values ...
  24 settings made for angmom
velocity        tri set 0.0 0.0 0.0
run             5000
Generated 0 of 1 mixed pair_coeff terms from geometric mixing rule
WARNING: Maximum triangle diameter 12.000000000000005 may be less than ghost cutoff 7.124555320336759 (../fix_surface_local.cpp:464)
Per MPI rank memory allocation (min/avg/max) = 18.62 | 18.62 | 18.62 Mbytes
   Step        Atoms         Temp           c_1            c_2           Press     
     10000         124   0.27147415     0.33728606     0.1685424      0.005910757  
     10100         124   0.081000302    0.10063674     0.057834525    0.0033827941 
     10200         124   0.046490567    0.057761007    0.041434134    0.0020789511 
     10300         124   0.034080624    0.042342594    0.03078691     0.0043586433 
     10400         124   0.025898145    0.032176483    0.023806996    0.0015955086 
     10500         124   0.022743526    0.028257108    0.021196758    0.0015430248 
     10600         124   0.021058926    0.02616412     0.019557612    0.0018878551 
     10700         124   0.018975315    0.023575391    0.017740292    0.0013807447 
     10800         124   0.017398382    0.021616171    0.01611036     0.0015376746 
     10900         124   0.015393049    0.019124697    0.014420946    0.0015344327 
     11000         124   0.012705416    0.015785517    0.011973992    0.0017387717 
     11100         124   0.011765211    0.014617384    0.011078171    0.0012678726 
     11200         124   0.010952909    0.01360816     0.010361527    0.0012589456 
     11300         124   0.0098625491   0.01225347     0.009293225    0.0013036864 
     11400         124   0.0083697082   0.010398728    0.0079340173   0.0012191756 
     11500         124   0.0076113578   0.0094565354   0.0072179743   0.0013144433 
     11600         124   0.0072388892   0.0089937714   0.0069215329   0.0012018431 
     11700         124   0.0066073328   0.0082091105   0.0062455738   0.001731298  
     11800         124   0.0060986854   0.0075771546   0.0057643582   0.0012376985 
     11900         124   0.0057829603   0.00718489     0.0054864006   0.0016414105 
     12000         124   0.0054193487   0.0067331302   0.0051690486   0.0011891628 
     12100         124   0.0050046481   0.0062178962   0.0047991121   0.0011937284 
     12200         124   0.0046240442   0.0057450247   0.0044152146   0.001238809  
     12300         124   0.00422041     0.0052435396   0.0040673602   0.0011519076 
     12400         124   0.0038156152   0.0047406128   0.0036452823   0.0011468215 
     12500         124   0.0036082727   0.0044830055   0.0034792629   0.0012501532 
     12600         124   0.0035154258   0.0043676503   0.0033935667   0.0011217997 
     12700         124   0.003410856    0.0042377302   0.0033011711   0.0011714584 
     12800         124   0.0032697202   0.0040623797   0.0031791297   0.0011530659 
     12900         124   0.0031445613   0.0039068792   0.0030583827   0.0011366737 
     13000         124   0.0030686268   0.0038125363   0.0029931018   0.001162483  
     13100         124   0.0030324093   0.0037675389   0.0029644674   0.0011408669 
     13200         124   0.0027767209   0.0034498654   0.0027354633   0.0011827057 
     13300         124   0.0026205977   0.0032558941   0.0025601221   0.0011308372 
     13400         124   0.002568708    0.0031914251   0.0025113761   0.0011318982 
     13500         124   0.0024699962   0.0030687832   0.0024167782   0.0011307906 
     13600         124   0.0023804547   0.0029575346   0.0023164606   0.0011317275 
     13700         124   0.0021704469   0.0026966158   0.0021261161   0.0011304872 
     13800         124   0.0021613611   0.0026853275   0.002120672    0.0011237761 
     13900         124   0.0021267633   0.0026423422   0.0020866416   0.00112692   
     14000         124   0.0019142637   0.0023783276   0.0018944483   0.0012519309 
     14100         124   0.0017414531   0.0021636236   0.0017484765   0.0011161652 
     14200         124   0.0016587026   0.0020608123   0.0016651415   0.0011386486 
     14300         124   0.0015605292   0.0019388394   0.0015793942   0.0011199786 
     14400         124   0.0014353107   0.0017832648   0.0014658635   0.0011447847 
     14500         124   0.0014123768   0.0017547712   0.0014398958   0.0011122605 
     14600         124   0.0013620525   0.0016922471   0.001395597    0.0011114868 
     14700         124   0.0013063877   0.0016230878   0.0013350096   0.0011106309 
     14800         124   0.0012136687   0.0015078915   0.0012536652   0.0011126527 
     14900         124   0.0011676157   0.001450674    0.0012117072   0.0011245914 
     15000         124   0.0011335402   0.0014083379   0.001175397    0.0011409274 
Loop time of 0.395194 on 1 procs for 5000 steps with 124 atoms

Performance: 5465674.603 tau/day, 12652.025 timesteps/s, 1.569 Matom-step/s
99.6% CPU use with 1 MPI tasks x no OpenMP threads

MPI task timing breakdown:
Section |  min time  |  avg time  |  max time  |%varavg| %total
---------------------------------------------------------------
Pair    | 0.3762     | 0.3762     | 0.3762     |   0.0 | 95.19
Neigh   | 0.0063383  | 0.0063383  | 0.0063383  |   0.0 |  1.60
Comm    | 0.00046989 | 0.00046989 | 0.00046989 |   0.0 |  0.12
Output  | 0.00033745 | 0.00033745 | 0.00033745 |   0.0 |  0.09
Modify  | 0.0098752  | 0.0098752  | 0.0098752  |   0.0 |  2.50
Other   |            | 0.001974   |            |       |  0.50

Nlocal:            124 ave         124 max         124 min
Histogram: 1 0 0 0 0 0 0 0 0 0
Nghost:              0 ave           0 max           0 min
Histogram: 1 0 0 0 0 0 0 0 0 0
Neighs:              0 ave           0 max           0 min
Histogram: 1 0 0 0 0 0 0 0 0 0

Total # of neighbors = 0
Ave neighs/atom = 0
Neighbor list builds = 84
Dangerous builds = 0

fix             1 tri move rotate 0 0 0 1 1 1 25
run	        	5000
Generated 0 of 1 mixed pair_coeff terms from geometric mixing rule
WARNING: Maximum triangle diameter 12.000000000000005 may be less than ghost cutoff 7.124555320336759 (../fix_surface_local.cpp:464)
Per MPI rank memory allocation (min/avg/max) = 19.49 | 19.49 | 19.49 Mbytes
   Step        Atoms         Temp           c_1            c_2           Press     
     15000         124   0.0011335402   0.0014083379   0.001175397    0.00113157   
     15100         124   5.2426604      0.14346656     0.084092126    0.085473204  
     15200         124   5.2821242      0.19249738     0.11235244     0.083852444  
     15300         124   5.2921322      0.20493155     0.12200805     0.084284466  
     15400         124   5.2922692      0.20510174     0.12270985     0.085778012  
     15500         124   5.3012672      0.21628109     0.12694824     0.088717802  
     15600         124   5.3068686      0.22324043     0.12882392     0.089209287  
     15700         124   5.3211531      0.2409878      0.13624677     0.090829788  
     15800         124   5.3366722      0.26026918     0.14318904     0.08626384   
     15900         124   5.326855       0.24807205     0.13268445     0.100918     
     16000         124   5.4065309      0.34706325     0.17971172     0.090921708  
     16100         124   5.3921294      0.32917046     0.16888981     0.097234113  
     16200         124   5.3908257      0.32755073     0.16683879     0.092553347  
     16300         124   5.3767531      0.31006662     0.15806972     0.091121731  
     16400         124   5.3853962      0.32080506     0.16352987     0.09859922   
     16500         124   5.3927414      0.32993092     0.16710689     0.093531401  
     16600         124   5.3844376      0.31961407     0.16180321     0.10264379   
     16700         124   5.4052387      0.34545778     0.17505961     0.088927813  
     16800         124   5.3808842      0.31519916     0.15985245     0.09493309   
     16900         124   5.3561342      0.28444916     0.14439717     0.092139837  
     17000         124   5.3749947      0.30788201     0.15817184     0.099105349  
     17100         124   5.3705364      0.3023429      0.15640296     0.086277063  
     17200         124   5.3827522      0.31752005     0.16529753     0.084193241  
     17300         124   5.3918418      0.32881319     0.17338749     0.084677602  
     17400         124   5.4190469      0.36261342     0.19203267     0.084694886  
     17500         124   5.4479172      0.39848266     0.2120977      0.084516256  
     17600         124   5.4661357      0.42111773     0.226805       0.088611666  
     17700         124   5.5291229      0.49937459     0.26865692     0.086215423  
     17800         124   5.6156932      0.60693161     0.32676846     0.090107602  
     17900         124   5.666349       0.66986763     0.36162184     0.095632574  
     18000         124   5.6230666      0.61609255     0.33804759     0.091251689  
     18100         124   5.5913741      0.57671701     0.3223365      0.092049436  
     18200         124   5.5243787      0.49348029     0.28501818     0.089010903  
     18300         124   5.5438208      0.51763558     0.29790019     0.09179637   
     18400         124   5.4975764      0.46018045     0.26579375     0.086217398  
     18500         124   5.4453202      0.39525609     0.23696924     0.091269153  
     18600         124   5.4375694      0.38562627     0.23295448     0.087446324  
     18700         124   5.4256181      0.37077774     0.22598202     0.087253269  
     18800         124   5.3996466      0.33851003     0.21166096     0.090165198  
     18900         124   5.4098152      0.35114379     0.2197791      0.087229429  
     19000         124   5.402497       0.34205151     0.21236519     0.091964165  
     19100         124   5.3936039      0.33100253     0.20669176     0.08541035   
     19200         124   5.4036058      0.3434291      0.21142359     0.090732334  
     19300         124   5.405596       0.34590172     0.20980474     0.090430978  
     19400         124   5.3945358      0.33216024     0.19841725     0.088685766  
     19500         124   5.4255439      0.37068552     0.20990667     0.091361612  
     19600         124   5.414443       0.35689345     0.19811521     0.0988373    
     19700         124   5.4252381      0.37030555     0.2026582      0.090066705  
     19800         124   5.3989255      0.33761418     0.18248987     0.093015276  
     19900         124   5.4201019      0.36392419     0.19394713     0.087093605  
     20000         124   5.4179379      0.36123558     0.19301911     0.09264779   
Loop time of 0.415733 on 1 procs for 5000 steps with 124 atoms

Performance: 5195646.657 tau/day, 12026.960 timesteps/s, 1.491 Matom-step/s
99.8% CPU use with 1 MPI tasks x no OpenMP threads

MPI task timing breakdown:
Section |  min time  |  avg time  |  max time  |%varavg| %total
---------------------------------------------------------------
Pair    | 0.35247    | 0.35247    | 0.35247    |   0.0 | 84.78
Neigh   | 0.037049   | 0.037049   | 0.037049   |   0.0 |  8.91
Comm    | 0.00075594 | 0.00075594 | 0.00075594 |   0.0 |  0.18
Output  | 0.00037931 | 0.00037931 | 0.00037931 |   0.0 |  0.09
Modify  | 0.022943   | 0.022943   | 0.022943   |   0.0 |  5.52
Other   |            | 0.002136   |            |       |  0.51

Nlocal:            124 ave         124 max         124 min
Histogram: 1 0 0 0 0 0 0 0 0 0
Nghost:              0 ave           0 max           0 min
Histogram: 1 0 0 0 0 0 0 0 0 0
Neighs:              0 ave           0 max           0 min
Histogram: 1 0 0 0 0 0 0 0 0 0

Total # of neighbors = 0
Ave neighs/atom = 0
Neighbor list builds = 418
Dangerous builds = 0

unfix           1
set             group tri angmom 0.0 0.0 0.0
Setting atom values ...
  24 settings made for angmom
velocity        tri set 0.0 0.0 0.0
run             5000
Generated 0 of 1 mixed pair_coeff terms from geometric mixing rule
WARNING: Maximum triangle diameter 12.000000000000005 may be less than ghost cutoff 7.124555320336759 (../fix_surface_local.cpp:464)
Per MPI rank memory allocation (min/avg/max) = 18.62 | 18.62 | 18.62 Mbytes
   Step        Atoms         Temp           c_1            c_2           Press     
     20000         124   0.29075059     0.36123558     0.19301911     0.007636705  
     20100         124   0.10721064     0.1332011      0.07928732     0.0030064905 
     20200         124   0.098629918    0.1225402      0.072819436    0.0026259551 
     20300         124   0.080064708    0.099474335    0.058127681    0.0033755069 
     20400         124   0.08444487     0.10491635     0.061448813    0.0024114507 
     20500         124   0.056076337    0.069670601    0.043110629    0.0036265388 
     20600         124   0.062790066    0.078011901    0.047536273    0.0022350621 
     20700         124   0.067121802    0.083393754    0.049955613    0.0041477745 
     20800         124   0.059452316    0.073864999    0.046258954    0.0071517574 
     20900         124   0.049760407    0.061823536    0.040170537    0.0096320657 
     21000         124   0.050610113    0.062879232    0.040886407    0.0030044698 
     21100         124   0.042047186    0.052240443    0.035038852    0.0034291407 
     21200         124   0.038128033    0.047371192    0.032812118    0.0025813487 
     21300         124   0.037748923    0.046900178    0.032126938    0.0046059536 
     21400         124   0.027635648    0.034335199    0.024105003    0.0025064049 
     21500         124   0.023520347    0.029222249    0.020864182    0.0025279129 
     21600         124   0.024048863    0.029878891    0.020807289    0.0023056704 
     21700         124   0.024683553    0.030667444    0.021284285    0.0021424411 
     21800         124   0.024377256    0.030286894    0.021183897    0.0030622325 
     21900         124   0.02503591     0.031105222    0.021537956    0.0026629005 
     22000         124   0.020776314    0.025812996    0.01839253     0.0022261899 
     22100         124   0.020054884    0.024916674    0.017536286    0.0040975072 
     22200         124   0.017330437    0.021531755    0.015427104    0.001753044  
     22300         124   0.015079122    0.018734666    0.014062278    0.0017717557 
     22400         124   0.01501666     0.018657062    0.013924266    0.0018137083 
     22500         124   0.015165567    0.018842068    0.013872095    0.0017778914 
     22600         124   0.017309971    0.021506327    0.015134873    0.0021499319 
     22700         124   0.013868256    0.017230257    0.012656974    0.0019494672 
     22800         124   0.01236016     0.015356563    0.011271523    0.0019754354 
     22900         124   0.012204321    0.015162945    0.011063272    0.0015308872 
     23000         124   0.010454252    0.012988616    0.0096838151   0.0015818565 
     23100         124   0.0093513759   0.011618376    0.0086388676   0.0016095554 
     23200         124   0.010241536    0.012724333    0.0091847301   0.0014307108 
     23300         124   0.0079132493   0.0098316128   0.0073541241   0.0020271616 
     23400         124   0.0082322539   0.010227952    0.0074390583   0.0013256233 
     23500         124   0.0070453735   0.0087533429   0.0065906813   0.001393695  
     23600         124   0.0069361083   0.0086175891   0.0064892139   0.0014648589 
     23700         124   0.0062656322   0.0077845734   0.00585958     0.0025121823 
     23800         124   0.005830915    0.0072444702   0.0054474307   0.0014044268 
     23900         124   0.0052238612   0.0064902518   0.0048435301   0.0013220106 
     24000         124   0.0051763895   0.0064312718   0.0047743562   0.001253681  
     24100         124   0.0054908473   0.0068219618   0.0049250097   0.0013819093 
     24200         124   0.0045972889   0.0057117832   0.0041038923   0.0011859163 
     24300         124   0.0033824087   0.0042023865   0.0030959733   0.0012163657 
     24400         124   0.0032507689   0.004038834    0.0029309163   0.0013926364 
     24500         124   0.0029241105   0.0036329858   0.0026327347   0.0013642021 
     24600         124   0.002390534    0.0029700574   0.0022391019   0.0011438159 
     24700         124   0.0022676791   0.0028174195   0.0021109559   0.0011246662 
     24800         124   0.0018161562   0.0022564365   0.0017216914   0.0012673319 
     24900         124   0.0015813053   0.001964652    0.0014940129   0.0011364796 
     25000         124   0.0014856456   0.0018458021   0.0014044952   0.0017793336 
Loop time of 0.379697 on 1 procs for 5000 steps with 124 atoms

Performance: 5688740.216 tau/day, 13168.380 timesteps/s, 1.633 Matom-step/s
99.5% CPU use with 1 MPI tasks x no OpenMP threads

MPI task timing breakdown:
Section |  min time  |  avg time  |  max time  |%varavg| %total
---------------------------------------------------------------
Pair    | 0.35167    | 0.35167    | 0.35167    |   0.0 | 92.62
Neigh   | 0.014002   | 0.014002   | 0.014002   |   0.0 |  3.69
Comm    | 0.00052494 | 0.00052494 | 0.00052494 |   0.0 |  0.14
Output  | 0.00037082 | 0.00037082 | 0.00037082 |   0.0 |  0.10
Modify  | 0.01113    | 0.01113    | 0.01113    |   0.0 |  2.93
Other   |            | 0.002      |            |       |  0.53

Nlocal:            124 ave         124 max         124 min
Histogram: 1 0 0 0 0 0 0 0 0 0
Nghost:              0 ave           0 max           0 min
Histogram: 1 0 0 0 0 0 0 0 0 0
Neighs:              0 ave           0 max           0 min
Histogram: 1 0 0 0 0 0 0 0 0 0

Total # of neighbors = 0
Ave neighs/atom = 0
Neighbor list builds = 178
Dangerous builds = 0

Total wall time: 0:00:02
