LAMMPS (10 Dec 2025 - Development - patch_10Dec2025-1117-gc6f63e885c-modified)
# pouring spheres into box made of line segments

units           lj
atom_style      sphere
boundary        f f p
dimension	    2
comm_modify     vel yes

region		    box block -15 15 -15 15 -0.5 0.5 units box
create_box	    2 box
Created orthogonal box = (-15 -15 -0.5) to (15 15 0.5)
  1 by 1 by 1 MPI processor grid

pair_style	    granular
pair_coeff	    * * hooke 4000.0 100.0                     tangential linear_history 1000.0 1.0 0.5 				    damping mass_velocity

neighbor	    0.3 bin
neigh_modify	delay 0 every 1 check yes

molecule        lines surf.line
Read molecule template lines:
LAMMPS molecule file for line box
  1 molecules
  0 fragments
  0 bodies
  0 atoms with max type 0
  0 bonds with max type 0
  0 angles with max type 0
  0 dihedrals with max type 0
  0 impropers with max type 0
  9 lines

fix             20 all surface/global input mol lines                 model * * granular hooke 4000.0 100.0                     tangential linear_history 1000.0 1.0 0.5                     damping mass_velocity
Fix surface/global line segment creation:
  9 lines
  11 line end points
  7 end point connections
  4 free end points
  5.9 min line length
  10.44030650891055 max line length

# rotate the box

fix_modify      20 move * rotate 0 0 0 0 0 1 25
Fix_modify move:
  turned on motion for 9 surfs

fix             2 all nve/sphere
fix		        3 all gravity 1.0 vector 0 -1 0

region          slab block -3 3 -2 2 -0.5 0.5 units box
fix             ins all pour 100 1 4767548 vol 0.4 10     	        diam one 1.0 region slab

fix     		10 all enforce2d

timestep	    0.005

compute         1 all temp
compute_modify  1 dynamic/dof yes

compute         2 all temp/sphere
compute_modify  2 dynamic/dof yes

thermo		    100
thermo_style	custom step atoms temp c_1 c_2 press
thermo_modify   lost ignore
compute_modify  thermo_temp dynamic/dof yes

#dump		    2 all image 100 tmp.image.*.ppm type type #		        zoom 1.6 adiam 1.0 fix 20 type 0.5 0.0
#dump_modify    2 pad 5

run	            10000
Generated 0 of 1 mixed pair_coeff terms from geometric mixing rule
Particle insertion: 12 every 566 steps, 100 by step 4529
Neighbor list info ...
  update: every = 1 steps, delay = 0 steps, check = yes
  max neighbors/atom: 2000, page size: 100000
  master list distance cutoff = 1.3
  ghost atom cutoff = 1.3
  binsize = 0.65, bins = 47 47 2
  1 neighbor lists, perpetual/occasional/extra = 1 0 0
  (1) pair granular, perpetual
      attributes: half, newton on, size, history
      pair build: half/size/bin/atomonly/newton
      stencil: half/bin/2d
      bin: standard
Per MPI rank memory allocation (min/avg/max) = 11.48 | 11.48 | 11.48 Mbytes
   Step        Atoms         Temp           c_1            c_2           Press     
         0           0   0              0              0              0            
WARNING: Fewer insertions than requested (../fix_pour.cpp:691)
       100           7   1.0483784      1.0483784      0.66213376     0.0069891897 
       200           7   1.6167923      1.6167923      1.0211319      0.010778615  
       300           7   2.3379224      2.3379224      1.4765825      0.015586149  
       400           7   3.2117688      3.2117688      2.0284855      0.021411792  
       500           7   4.2383315      4.2383315      2.676841       0.028255543  
WARNING: Fewer insertions than requested (../fix_pour.cpp:691)
       600          18   2.1323873      2.1323873      1.3984894      0.040278428  
       700          18   2.6238114      2.6238114      1.7377709      0.049560881  
       800          18   2.8383789      2.8383789      1.8973467      0.053613824  
       900          18   3.1496349      3.1496349      2.1307763      0.059493103  
      1000          18   3.0691932      3.0691932      2.0967231      0.088686404  
      1100          18   2.7374513      2.7374513      1.9052937      0.11089014   
WARNING: Fewer insertions than requested (../fix_pour.cpp:691)
      1200          26   2.0524714      2.0524714      1.418879       0.093939768  
      1300          26   1.7838645      1.7838645      1.2131395      0.053240855  
      1400          26   1.7251012      1.7251012      1.1632634      0.049334412  
      1500          26   1.8930231      1.8930231      1.2677764      0.05427508   
      1600          26   2.1156438      2.1156438      1.414509       0.06081221   
WARNING: Fewer insertions than requested (../fix_pour.cpp:691)
      1700          36   1.9587322      1.9587322      1.308108       0.078126772  
      1800          36   2.509483       2.509483       1.6708195      0.098419366  
      1900          36   2.2488651      2.2488651      1.4907264      0.088304469  
      2000          36   2.047078       2.047078       1.3643418      0.10186748   
      2100          36   2.094275       2.094275       1.3989128      0.092988151  
      2200          36   2.1422335      2.1422335      1.4266451      0.17051726   
      2300          48   1.5809783      1.5809783      1.0628227      0.092038782  
      2400          48   1.5545888      1.5545888      1.0497328      0.10056093   
      2500          48   1.5981164      1.5981164      1.0798397      0.10834798   
      2600          48   1.69127        1.69127        1.1470885      0.113565     
      2700          48   1.5641153      1.5641153      1.0719802      0.12376883   
      2800          48   1.7126096      1.7126096      1.1667712      0.11291448   
      2900          60   1.7488567      1.7488567      1.1895594      0.13902883   
      3000          60   2.0920247      2.0920247      1.4151672      0.14319529   
      3100          60   2.196663       2.196663       1.4792507      0.15995279   
      3200          60   2.1735127      2.1735127      1.4603859      0.229825     
      3300          60   1.9558827      1.9558827      1.3223373      0.1661281    
WARNING: Fewer insertions than requested (../fix_pour.cpp:691)
      3400          65   1.7336189      1.7336189      1.1734097      0.26570666   
      3500          65   1.7847384      1.7847384      1.2059093      0.36095234   
      3600          65   1.6820208      1.6820208      1.1426944      0.15248041   
      3700          65   1.6788402      1.6788402      1.1391633      0.1616337    
      3800          65   1.7550122      1.7550122      1.1900573      0.15756165   
      3900          65   1.7237813      1.7237813      1.1751463      0.15711345   
      4000          77   1.56195        1.56195        1.0597181      0.16976336   
      4100          77   1.6765287      1.6765287      1.1372877      0.17504252   
      4200          77   1.4847106      1.4847106      1.016266       0.17180515   
      4300          77   1.5938736      1.5938736      1.0777134      0.1617579    
      4400          77   1.7644008      1.7644008      1.190262       0.19389703   
      4500          77   1.9513926      1.9513926      1.3137804      0.18564033   
WARNING: Fewer insertions than requested (../fix_pour.cpp:691)
      4600          86   2.0476481      2.0476481      1.3759882      0.20187714   
      4700          86   2.0327019      2.0327019      1.3760919      0.29239752   
      4800          86   2.042138       2.042138       1.3859672      0.36738367   
      4900          86   1.9436485      1.9436485      1.3136847      0.34141443   
      5000          86   1.9220889      1.9220889      1.2985122      0.21777396   
WARNING: Fewer insertions than requested (../fix_pour.cpp:691)
      5100          97   1.7028646      1.7028646      1.1607681      0.23507617   
      5200          97   1.622642       1.622642       1.1201464      0.3463707    
      5300          97   1.5947615      1.5947615      1.1027374      0.29197907   
      5400          97   1.7200814      1.7200814      1.1682052      0.40457049   
      5500          97   1.7598701      1.7598701      1.1950904      0.32389193   
      5600          97   1.9046645      1.9046645      1.2850526      0.26251108   
      5700         100   1.848409       1.848409       1.2430117      0.32969107   
      5800         100   1.8995461      1.8995461      1.2764862      0.31166292   
      5900         100   1.9186277      1.9186277      1.2833429      0.27225739   
      6000         100   1.8993701      1.8993701      1.2714104      0.34479174   
      6100         100   1.7840031      1.7840031      1.2038193      0.32406397   
      6200         100   1.8572969      1.8572969      1.2540053      0.32928261   
      6300         100   1.7005549      1.7005549      1.1529648      0.27097245   
      6400         100   1.7639224      1.7639224      1.1968025      0.26111302   
      6500         100   1.6039672      1.6039672      1.0919137      0.31851367   
      6600         100   1.5214778      1.5214778      1.0231514      0.24523304   
      6700         100   1.5046205      1.5046205      1.0139019      0.27660192   
      6800         100   1.5218633      1.5218633      1.0269253      0.21137721   
      6900         100   1.5143921      1.5143921      1.020391       0.18370274   
      7000         100   1.5648696      1.5648696      1.0535327      0.19895771   
      7100         100   1.6485647      1.6485647      1.1053846      0.28793592   
      7200         100   1.7774369      1.7774369      1.1907009      0.21927223   
      7300         100   1.8862744      1.8862744      1.2669392      0.2365255    
      7400         100   2.0736322      2.0736322      1.3965407      0.27051305   
      7500         100   2.2527498      2.2527498      1.5169586      0.29879019   
      7600         100   2.5413326      2.5413326      1.7178377      0.29671654   
      7700         100   2.7614526      2.7614526      1.8753679      0.34271308   
      7800         100   2.6365586      2.6365586      1.8080865      0.32505349   
      7900         100   2.7570923      2.7570923      1.8769182      0.35042662   
      8000         100   2.7236098      2.7236098      1.8466119      0.40575557   
      8100         100   2.7128066      2.7128066      1.8317831      0.35795129   
      8200          99   2.5806056      2.5806056      1.7456307      0.38874724   
      8300          96   2.4050474      2.4050474      1.6358198      0.34771714   
      8400          96   2.6452549      2.6452549      1.7905752      0.35238919   
      8500          95   2.6264203      2.6264203      1.780971       0.40935804   
      8600          91   2.2974591      2.2974591      1.5581148      0.29796217   
      8700          90   2.1437497      2.1437497      1.455709       0.23817164   
      8800          88   2.0249335      2.0249335      1.3725885      0.21603281   
      8900          87   1.5049213      1.5049213      1.0258284      0.27207833   
      9000          87   1.424819       1.424819       0.97114454     0.18284463   
      9100          86   1.4490379      1.4490379      0.9836144      0.22442384   
      9200          86   1.5949577      1.5949577      1.0778575      0.19004142   
      9300          85   1.6001598      1.6001598      1.0798728      0.18970137   
      9400          84   1.67348        1.67348        1.1273627      0.22433955   
      9500          84   1.772292       1.772292       1.1922473      0.1961081    
      9600          83   1.8928688      1.8928688      1.2713668      0.21179077   
      9700          83   2.0227836      2.0227836      1.3620967      0.23824654   
      9800          83   1.8231684      1.8231684      1.2384093      0.37774201   
      9900          82   1.8340171      1.8340171      1.2547009      0.24513889   
     10000          82   1.6572053      1.6572053      1.135976       0.16570474   
Loop time of 0.221725 on 1 procs for 10000 steps with 82 atoms

Performance: 19483632.680 tau/day, 45101.002 timesteps/s, 3.698 Matom-step/s
94.1% CPU use with 1 MPI tasks x no OpenMP threads

MPI task timing breakdown:
Section |  min time  |  avg time  |  max time  |%varavg| %total
---------------------------------------------------------------
Pair    | 0.044252   | 0.044252   | 0.044252   |   0.0 | 19.96
Neigh   | 0.0089478  | 0.0089478  | 0.0089478  |   0.0 |  4.04
Comm    | 0.0010416  | 0.0010416  | 0.0010416  |   0.0 |  0.47
Output  | 0.00057261 | 0.00057261 | 0.00057261 |   0.0 |  0.26
Modify  | 0.16392    | 0.16392    | 0.16392    |   0.0 | 73.93
Other   |            | 0.002992   |            |       |  1.35

Nlocal:             82 ave          82 max          82 min
Histogram: 1 0 0 0 0 0 0 0 0 0
Nghost:              0 ave           0 max           0 min
Histogram: 1 0 0 0 0 0 0 0 0 0
Neighs:            105 ave         105 max         105 min
Histogram: 1 0 0 0 0 0 0 0 0 0

Total # of neighbors = 105
Ave neighs/atom = 1.2804878
Neighbor list builds = 1487
Dangerous builds = 0
Total wall time: 0:00:00
