LAMMPS (10 Dec 2025 - Development - patch_10Dec2025-1117-gc6f63e885c-modified)
# pouring spheres into box made of triangles

units		    lj
atom_style	    tri
atom_modify     map array
boundary        f f f
dimension	    3
comm_modify     vel yes

region          box block -7 7 -7 7 0 9 units box
create_box      2 box
Created orthogonal box = (-7 -7 0) to (7 7 9)
  1 by 1 by 1 MPI processor grid

molecule        tris surf.tri
Read molecule template tris:
LAMMPS data file for tri plane
  1 molecules
  0 fragments
  0 bodies
  0 atoms with max type 0
  0 bonds with max type 0
  0 angles with max type 0
  0 dihedrals with max type 0
  0 impropers with max type 0
  4 triangles
fix             20 all surface/local input mol tris
Fix surface/local triangle creation:
  4 tris
  8 tri edges
  5 tri corner points
  4 edge connections
  2 corner point connections
  4 free edges
  0 free corner points
  8.48528137423857 min edge length
  12 max edge length
  36 min tri area
  36 max tri area

pair_style		hybrid granular surf/granular
pair_coeff		1 1 granular hooke 4000.0 100.0                          tangential linear_history 1000.0 1.0 0.5 						 damping mass_velocity
pair_coeff		1 2 surf/granular hooke 4000.0 100.0                          tangential linear_history 1000.0 1.0 0.5 						 damping mass_velocity
pair_coeff		2 2 none

group           sphere type 1
0 atoms in group sphere
group           tri type 2
4 atoms in group tri

neighbor	    0.3 bin
neigh_modify	delay 0 every 1 check yes

fix             2 sphere nve/sphere
fix		        3 sphere gravity 1.0 vector 0 0 -1

region          slab block -2 2 -2 2 7 9 units box
fix             ins sphere pour 100 1 4767548 vol 0.4 10 	            diam one 1.0 region slab ignore

region          zcylinder cylinder z 0 0 7.0 INF INF units box
fix             wall sphere wall/gran/region granular hooke 4000.0 100.0                          tangential linear_history 1000.0 1.0 0.5 						 damping mass_velocity                          region zcylinder

timestep	    0.005

compute         1 sphere temp
compute_modify  1 dynamic/dof yes

compute         2 sphere temp/sphere
compute_modify  2 dynamic/dof yes

thermo		    100
thermo_style	custom step atoms temp c_1 c_2 press
thermo_modify   lost ignore
compute_modify  thermo_temp dynamic/dof yes

#dump		    2 all image 100 tmp.image.*.ppm type type #		        zoom 1.4 adiam 1.0 tri type 2 0.2
#dump_modify	    2 pad 5

run	            5000
Generated 0 of 1 mixed pair_coeff terms from geometric mixing rule
Particle insertion: 24 every 400 steps, 100 by step 1601
Neighbor list info ...
  update: every = 1 steps, delay = 0 steps, check = yes
  max neighbors/atom: 2000, page size: 100000
  master list distance cutoff = 7.1245553
  ghost atom cutoff = 7.1245553
  binsize = 3.5622777, bins = 4 4 3
  3 neighbor lists, perpetual/occasional/extra = 3 0 0
  (1) pair granular, perpetual, skip from (3)
      attributes: half, newton on, size, history, off2on
      pair build: skip/size/off2on
      stencil: none
      bin: none
  (2) pair surf/granular, perpetual, skip from (3)
      attributes: half, newton on, size, history, onesided, off2on
      pair build: skip/size/off2on/oneside
      stencil: none
      bin: none
  (3) neighbor class addition, perpetual
      attributes: half, newton off, size, history
      pair build: half/size/bin/atomonly/newtoff
      stencil: full/bin/3d
      bin: standard
WARNING: Maximum triangle diameter 12 may be less than ghost cutoff 7.124555320336759 (../fix_surface_local.cpp:464)
Per MPI rank memory allocation (min/avg/max) = 19.55 | 19.55 | 19.55 Mbytes
   Step        Atoms         Temp           c_1            c_2           Press     
         0           4   0              0              0              0            
       100          28   0.36763289     0.43156905     0.21119336     0.005627034  
       200          28   0.62433559     0.73291569     0.35866087     0.009556157  
       300          28   0.95860848     1.125323       0.55068998     0.014672579  
       400          28   1.3704516      1.608791       0.78728068     0.020976299  
WARNING: Fewer insertions than requested (../fix_pour.cpp:691)
       500          48   0.95482403     1.0436449      0.51675284     0.025440323  
       600          48   0.86515042     0.94562952     0.46979853     0.023349292  
       700          48   0.91653827     1.0017976      0.50260392     0.032544978  
       800          48   0.76003034     0.83073083     0.42839142     0.024158751  
       900          72   0.67093513     0.71099096     0.36468692     0.027844556  
      1000          72   0.68959976     0.73076989     0.37895041     0.025596063  
      1100          72   0.6356391      0.67358771     0.35413027     0.026689915  
      1200          72   0.6694845      0.70945372     0.37432259     0.054490576  
WARNING: Fewer insertions than requested (../fix_pour.cpp:691)
      1300          92   0.49826871     0.52117762     0.27762625     0.041204925  
      1400          92   0.50701183     0.53032272     0.28089642     0.027699075  
      1500          92   0.48454184     0.50681963     0.27191721     0.026619921  
      1600          92   0.46085666     0.48204547     0.25780353     0.043449139  
      1700         103   0.36517629     0.38008144     0.20671683     0.041198144  
      1800         103   0.31739403     0.33034889     0.18118161     0.035737912  
      1900         103   0.28220301     0.2937215      0.16194317     0.018700612  
      2000         103   0.22812245     0.23743357     0.13283507     0.023066149  
      2100         102   0.26045466     0.27119506     0.14776433     0.018852081  
      2200         101   0.1963447      0.20452573     0.11543386     0.02205856   
      2300         101   0.12017295     0.12518016     0.075726617    0.014468144  
      2400         101   0.069768277    0.072675288    0.047110298    0.010812004  
      2500         101   0.044488188    0.046341863    0.032182091    0.017486462  
      2600         101   0.037801133    0.039376181    0.027515359    0.0098399599 
      2700         101   0.029451241    0.030678376    0.021579938    0.0087346681 
      2800         100   0.018797533    0.019589008    0.014136419    0.0074202302 
      2900         100   0.013505923    0.014074593    0.010474697    0.0079583566 
      3000         100   0.0090485136   0.0094295037   0.0074263874   0.007294822  
      3100         100   0.0075494282   0.0078672988   0.0060174672   0.0077638358 
      3200         100   0.0058458329   0.0060919733   0.0048926312   0.0058958555 
      3300         100   0.0043257336   0.0045078698   0.0037920537   0.0070748628 
      3400         100   0.0039407674   0.0041066944   0.003569517    0.0066546952 
      3500         100   0.0038011098   0.0039611565   0.0032889132   0.0063337308 
      3600         100   0.0034832175   0.0036298793   0.0029613392   0.0067925798 
      3700         100   0.0037831626   0.0039424536   0.0030469748   0.0061307859 
      3800         100   0.003592274    0.0037435276   0.0027653681   0.0069246639 
      3900         100   0.0015582073   0.001623816    0.0014934856   0.0068048736 
      4000         100   0.0012177946   0.0012690702   0.001203759    0.0067561385 
      4100         100   0.0011280179   0.0011755134   0.0011535639   0.0064346634 
      4200         100   0.0010585836   0.0011031555   0.0011409874   0.006398565  
      4300         100   0.00081094776  0.00084509293  0.00094962979  0.0073709736 
      4400         100   0.00077308096  0.00080563174  0.00089819623  0.0067196847 
      4500         100   0.00073503043  0.00076597908  0.00087330167  0.00663623   
      4600         100   0.00071407055  0.00074413668  0.00086841061  0.0069243979 
      4700         100   0.00065138241  0.00067880904  0.00078971513  0.0073181438 
      4800         100   0.00063897044  0.00066587446  0.00076936076  0.0074534837 
      4900         100   0.00059002513  0.00061486829  0.00075331886  0.0067489817 
      5000         100   0.0005470034   0.00057003512  0.00066613173  0.0070660606 
Loop time of 0.264084 on 1 procs for 5000 steps with 100 atoms

Performance: 8179204.771 tau/day, 18933.344 timesteps/s, 1.893 Matom-step/s
99.0% CPU use with 1 MPI tasks x no OpenMP threads

MPI task timing breakdown:
Section |  min time  |  avg time  |  max time  |%varavg| %total
---------------------------------------------------------------
Pair    | 0.22388    | 0.22388    | 0.22388    |   0.0 | 84.77
Neigh   | 0.012583   | 0.012583   | 0.012583   |   0.0 |  4.76
Comm    | 0.00065882 | 0.00065882 | 0.00065882 |   0.0 |  0.25
Output  | 0.00040923 | 0.00040923 | 0.00040923 |   0.0 |  0.15
Modify  | 0.024722   | 0.024722   | 0.024722   |   0.0 |  9.36
Other   |            | 0.001836   |            |       |  0.70

Nlocal:            100 ave         100 max         100 min
Histogram: 1 0 0 0 0 0 0 0 0 0
Nghost:              0 ave           0 max           0 min
Histogram: 1 0 0 0 0 0 0 0 0 0
Neighs:              0 ave           0 max           0 min
Histogram: 1 0 0 0 0 0 0 0 0 0

Total # of neighbors = 0
Ave neighs/atom = 0
Neighbor list builds = 324
Dangerous builds = 0

fix             1 tri move rotate 0 0 0 0 0 1 25
run	            5000
Generated 0 of 1 mixed pair_coeff terms from geometric mixing rule
WARNING: Maximum triangle diameter 12 may be less than ghost cutoff 7.124555320336759 (../fix_surface_local.cpp:464)
Per MPI rank memory allocation (min/avg/max) = 20.43 | 20.43 | 20.43 Mbytes
   Step        Atoms         Temp           c_1            c_2           Press     
      5000         100   0.0005470034   0.00057003512  0.00066613173  0.0070983788 
      5100         100   0.51629751     0.027393412    0.025425645    0.036395734  
      5200          96   0.54783375     0.038825568    0.045578633    0.035772833  
      5300          93   0.56548603     0.03992767     0.046740591    0.034653181  
      5400          92   0.57441826     0.043229681    0.048406906    0.03497755   
      5500          91   0.58304779     0.046083974    0.050541874    0.035417303  
      5600          88   0.60222401     0.046776015    0.049999519    0.03437826   
      5700          87   0.61073475     0.048928154    0.050661781    0.033801216  
      5800          84   0.63175485     0.049678139    0.051070343    0.033603878  
      5900          81   0.654811       0.050971062    0.049400868    0.034236652  
      6000          80   0.66417349     0.052781687    0.051515727    0.033375065  
      6100          78   0.68147983     0.05428585     0.050345322    0.033335496  
      6200          77   0.69169684     0.056359451    0.051198803    0.033310654  
      6300          75   0.70892186     0.056416254    0.04978785     0.036764727  
      6400          73   0.72878311     0.058254479    0.050763685    0.03312529   
      6500          71   0.74748333     0.057768995    0.049911907    0.03291629   
      6600          69   0.76731757     0.057289302    0.048409265    0.032498501  
      6700          69   0.76773406     0.057731822    0.049330007    0.032821717  
      6800          69   0.76724416     0.057211297    0.04964834     0.036929743  
      6900          69   0.76447272     0.054266645    0.048787712    0.03282445   
      7000          68   0.77363289     0.052735299    0.047911998    0.032481609  
      7100          68   0.77435311     0.05350125     0.04910248     0.032469109  
      7200          67   0.78385294     0.051987325    0.048866966    0.033290422  
      7300          67   0.7826696      0.050727648    0.048976235    0.032192785  
      7400          66   0.792809       0.049532878    0.047831833    0.032037532  
      7500          64   0.81441201     0.047404698    0.047013948    0.031994183  
      7600          62   0.83835873     0.046119355    0.045999703    0.0318254    
      7700          62   0.83805677     0.045796204    0.046270473    0.032492569  
      7800          62   0.83781356     0.045535919    0.047128312    0.031772377  
      7900          61   0.85060468     0.045092879    0.047474324    0.031712641  
      8000          59   0.87688735     0.043488639    0.046226954    0.031467337  
      8100          59   0.87657481     0.043152957    0.047152783    0.031415979  
      8200          58   0.89098967     0.042930785    0.047151496    0.031844826  
      8300          57   0.90635439     0.043168577    0.046650077    0.032000054  
      8400          56   0.92115882     0.042208929    0.046375858    0.031266713  
      8500          54   0.95285889     0.040621261    0.044479389    0.030929201  
      8600          53   0.97006424     0.040255433    0.044973379    0.030924944  
      8700          53   0.97077387     0.0410242      0.046365487    0.030988981  
      8800          51   1.0066389      0.039583987    0.044119311    0.030794731  
      8900          50   1.0257175      0.038868433    0.0452303      0.03067429   
      9000          50   1.0258403      0.03900209     0.046562501    0.030770354  
      9100          47   1.0882057      0.036818623    0.04372675     0.030443712  
      9200          46   1.1118745      0.037153047    0.043152751    0.030339204  
      9300          45   1.1361309      0.036966959    0.044220724    0.030288602  
      9400          44   1.1613381      0.036575908    0.045028511    0.03021209   
      9500          43   1.1861322      0.034380917    0.043853644    0.030121006  
      9600          43   1.1868697      0.035196046    0.045431996    0.030092885  
      9700          41   1.241198       0.03157895     0.041040359    0.029961101  
      9800          41   1.2407228      0.031050882    0.041741582    0.029963285  
      9900          41   1.2402327      0.030506315    0.042988847    0.029870727  
     10000          41   1.239997       0.030244464    0.044585925    0.02990143   
Loop time of 0.221018 on 1 procs for 5000 steps with 41 atoms

Performance: 9772956.883 tau/day, 22622.585 timesteps/s, 927.526 katom-step/s
99.6% CPU use with 1 MPI tasks x no OpenMP threads

MPI task timing breakdown:
Section |  min time  |  avg time  |  max time  |%varavg| %total
---------------------------------------------------------------
Pair    | 0.1932     | 0.1932     | 0.1932     |   0.0 | 87.41
Neigh   | 0.0052283  | 0.0052283  | 0.0052283  |   0.0 |  2.37
Comm    | 0.00053924 | 0.00053924 | 0.00053924 |   0.0 |  0.24
Output  | 0.00039492 | 0.00039492 | 0.00039492 |   0.0 |  0.18
Modify  | 0.020024   | 0.020024   | 0.020024   |   0.0 |  9.06
Other   |            | 0.001633   |            |       |  0.74

Nlocal:             41 ave          41 max          41 min
Histogram: 1 0 0 0 0 0 0 0 0 0
Nghost:              0 ave           0 max           0 min
Histogram: 1 0 0 0 0 0 0 0 0 0
Neighs:              0 ave           0 max           0 min
Histogram: 1 0 0 0 0 0 0 0 0 0

Total # of neighbors = 0
Ave neighs/atom = 0
Neighbor list builds = 171
Dangerous builds = 0

unfix           1
set             group tri angmom 0.0 0.0 0.0
Setting atom values ...
  4 settings made for angmom
velocity        tri set 0.0 0.0 0.0
run             5000
Generated 0 of 1 mixed pair_coeff terms from geometric mixing rule
WARNING: Maximum triangle diameter 12 may be less than ghost cutoff 7.124555320336759 (../fix_surface_local.cpp:464)
Per MPI rank memory allocation (min/avg/max) = 19.55 | 19.55 | 19.55 Mbytes
   Step        Atoms         Temp           c_1            c_2           Press     
     10000          41   0.027220017    0.030244464    0.044585925    0.0053079155 
     10100          41   0.0057144318   0.0063493687   0.0091847885   0.0019275284 
     10200          41   0.002425498    0.0026949978   0.0047238699   0.0022824627 
     10300          41   0.0022350536   0.0024833929   0.0048565963   0.0024648503 
     10400          41   0.0021890127   0.0024322364   0.0050901396   0.0027588428 
     10500          40   0.0025121206   0.0027992201   0.0031167069   0.0019413315 
     10600          40   0.0029587906   0.0032969381   0.003698482    0.0019469306 
     10700          40   0.0040460854   0.0045084952   0.0043985628   0.0025061235 
     10800          39   0.0019619353   0.0021927512   0.0036344798   0.0020690853 
     10900          39   0.0018907808   0.0021132256   0.0039882696   0.0020496478 
     11000          39   0.0017158264   0.0019176884   0.0042324861   0.0031806535 
     11100          39   0.0015820127   0.0017681318   0.003547934    0.0024549907 
     11200          39   0.002025722    0.0022640422   0.0036917803   0.0026880211 
     11300          39   0.0013480073   0.0015065964   0.0034747757   0.0022439317 
     11400          39   0.0012299209   0.0013746175   0.0036569008   0.002945475  
     11500          39   0.0012244533   0.0013685066   0.003911639    0.0028128815 
     11600          39   0.0011982048   0.0013391701   0.0042493847   0.002690108  
     11700          39   0.0011255702   0.0012579902   0.0045312303   0.0028856423 
     11800          39   0.0011330831   0.001266387    0.0048899052   0.0031681584 
     11900          39   0.0011361986   0.001269869    0.0052498063   0.0036425576 
     12000          39   0.0012436883   0.0013900046   0.0056810557   0.0034041287 
     12100          38   0.0010831804   0.001214475    0.0033408299   0.0035967312 
     12200          38   0.0010127071   0.0011354595   0.0030458967   0.0039667417 
     12300          38   0.0010576246   0.0011858215   0.0029156786   0.0039880198 
     12400          38   0.0012505201   0.0014020983   0.0030028478   0.0036497859 
     12500          37   0.0010466594   0.0011774919   0.0028648686   0.00269873   
     12600          37   0.0010053198   0.0011309848   0.0029971492   0.0026068121 
     12700          37   0.00094893613  0.0010675531   0.0031650255   0.0026055597 
     12800          37   0.00088112656  0.00099126738  0.0033610861   0.0026131825 
     12900          37   0.0008309348   0.00093480165  0.0035629293   0.0026375746 
     13000          37   0.0008266065   0.00092993231  0.003771057    0.0027904432 
     13100          37   0.00077545625  0.00087238828  0.0039534188   0.0028878178 
     13200          37   0.00093337622  0.0010500483   0.0042581704   0.0031641228 
     13300          37   0.00071609206  0.00080560357  0.0042542752   0.0034596347 
     13400          36   0.00070066866  0.00079107752  0.0021510108   0.0028258855 
     13500          36   0.00091560231  0.0010337445   0.0024041821   0.0030421578 
     13600          35   0.00087457751  0.00099118784  0.0011681095   0.0021079386 
     13700          35   0.0009767045   0.0011069318   0.0013794373   0.0021273592 
     13800          35   0.0010717956   0.0012147017   0.0016306618   0.0021210022 
     13900          35   0.0011479837   0.0013010482   0.0019188201   0.0021435347 
     14000          35   0.0011947031   0.0013539969   0.0022371907   0.0021621667 
     14100          35   0.0012033457   0.0013637918   0.0025789629   0.0021847182 
     14200          35   0.0011713719   0.0013275549   0.0029325638   0.0022188008 
     14300          35   0.0011035859   0.0012507307   0.0032861103   0.0022594531 
     14400          35   0.0010115208   0.0011463902   0.0036275029   0.0023139809 
     14500          35   0.00090820199  0.0010292956   0.0039470384   0.0023882494 
     14600          35   0.00080471408  0.00091200929  0.0042386033   0.0024532602 
     14700          35   0.00071774393  0.00081344312  0.0044689828   0.0024794113 
     14800          35   0.00057146826  0.00064766402  0.0046526378   0.0026813713 
     14900          35   0.00050047911  0.00056720966  0.0048509656   0.0029121069 
     15000          35   0.00044761327  0.00050729503  0.0050264525   0.0031989663 
Loop time of 0.12335 on 1 procs for 5000 steps with 35 atoms

Performance: 17511153.815 tau/day, 40535.078 timesteps/s, 1.419 Matom-step/s
98.8% CPU use with 1 MPI tasks x no OpenMP threads

MPI task timing breakdown:
Section |  min time  |  avg time  |  max time  |%varavg| %total
---------------------------------------------------------------
Pair    | 0.11048    | 0.11048    | 0.11048    |   0.0 | 89.57
Neigh   | 0.00053146 | 0.00053146 | 0.00053146 |   0.0 |  0.43
Comm    | 0.00041453 | 0.00041453 | 0.00041453 |   0.0 |  0.34
Output  | 0.00032075 | 0.00032075 | 0.00032075 |   0.0 |  0.26
Modify  | 0.010442   | 0.010442   | 0.010442   |   0.0 |  8.47
Other   |            | 0.001159   |            |       |  0.94

Nlocal:             35 ave          35 max          35 min
Histogram: 1 0 0 0 0 0 0 0 0 0
Nghost:              0 ave           0 max           0 min
Histogram: 1 0 0 0 0 0 0 0 0 0
Neighs:              0 ave           0 max           0 min
Histogram: 1 0 0 0 0 0 0 0 0 0

Total # of neighbors = 0
Ave neighs/atom = 0
Neighbor list builds = 40
Dangerous builds = 0
Total wall time: 0:00:00
