LAMMPS (10 Dec 2025 - Development - patch_10Dec2025-1117-gc6f63e885c-modified)
# pouring spheres into box made of triangles

units		    lj
atom_style	    sphere
boundary        f f f
dimension	    3
comm_modify     vel yes

region          box block -7 7 -7 7 0 9 units box
create_box	    2 box   # simply for dump_modify to color lines = green
Created orthogonal box = (-7 -7 0) to (7 7 9)
  1 by 1 by 1 MPI processor grid

pair_style	    granular
pair_coeff	    * * hooke 4000.0 100.0                     tangential linear_history 1000.0 1.0 0.5 				    damping mass_velocity

neighbor	    0.3 bin
neigh_modify	delay 0 every 1 check yes

molecule        tris surf.tri
Read molecule template tris:
LAMMPS data file for tri plane
  1 molecules
  0 fragments
  0 bodies
  0 atoms with max type 0
  0 bonds with max type 0
  0 angles with max type 0
  0 dihedrals with max type 0
  0 impropers with max type 0
  4 triangles

fix             20 all surface/global input mol tris                 model * * granular hooke 4000.0 100.0                     tangential linear_history 1000.0 1.0 0.5                     damping mass_velocity
Fix surface/global triangle creation:
  4 tris
  8 tri edges
  5 tri corner points
  4 edge connections
  2 corner point connections
  4 free edges
  0 free corner points
  8.48528137423857 min edge length
  12 max edge length
  36 min tri area
  36 max tri area

fix             2 all nve/sphere
fix		        3 all gravity 1.0 vector 0 0 -1

region          slab block -2 2 -2 2 7 9 units box
fix             ins all pour 100 1 4767548 vol 0.4 10     	        diam one 1.0 region slab ignore

region          zcylinder cylinder z 0 0 7.0 INF INF units box
fix             wall all wall/gran/region granular hooke 4000.0 100.0                          tangential linear_history 1000.0 1.0 0.5 						 damping mass_velocity                          region zcylinder

timestep	    0.005

compute         1 all temp
compute_modify  1 dynamic/dof yes

compute         2 all temp/sphere
compute_modify  2 dynamic/dof yes

thermo		    100
thermo_style	custom step atoms temp c_1 c_2 press
thermo_modify   lost ignore
compute_modify  thermo_temp dynamic/dof yes

#dump		    2 all image 100 tmp.image.*.ppm type type #		        zoom 1.4 adiam 1.0 fix 20 type 2 0.5
#dump_modify	    2 pad 5

run	            5000
Generated 0 of 1 mixed pair_coeff terms from geometric mixing rule
Particle insertion: 24 every 400 steps, 100 by step 1601
Neighbor list info ...
  update: every = 1 steps, delay = 0 steps, check = yes
  max neighbors/atom: 2000, page size: 100000
  master list distance cutoff = 1.3
  ghost atom cutoff = 1.3
  binsize = 0.65, bins = 22 22 14
  1 neighbor lists, perpetual/occasional/extra = 1 0 0
  (1) pair granular, perpetual
      attributes: half, newton on, size, history
      pair build: half/size/bin/atomonly/newton
      stencil: half/bin/3d
      bin: standard
Per MPI rank memory allocation (min/avg/max) = 11.53 | 11.53 | 11.53 Mbytes
   Step        Atoms         Temp           c_1            c_2           Press     
         0           0   0              0              0              0            
       100          24   0.43156905     0.43156905     0.21119336     0.005627034  
       200          24   0.73291569     0.73291569     0.35866087     0.009556157  
       300          24   1.125323       1.125323       0.55068998     0.014672579  
       400          24   1.608791       1.608791       0.78728068     0.020976299  
WARNING: Fewer insertions than requested (../fix_pour.cpp:691)
       500          44   1.0436449      1.0436449      0.51675284     0.025440323  
       600          44   0.94588576     0.94588576     0.46980918     0.023057306  
       700          44   0.99723279     0.99723279     0.50102491     0.032319006  
       800          44   0.84127806     0.84127806     0.43234969     0.023327224  
       900          68   0.69776727     0.69776727     0.35867213     0.026910819  
      1000          68   0.78689153     0.78689153     0.4059512      0.029887604  
      1100          68   0.7080973      0.7080973      0.37060883     0.027262487  
      1200          68   0.60038428     0.60038428     0.3185384      0.059151992  
WARNING: Fewer insertions than requested (../fix_pour.cpp:691)
      1300          88   0.48090618     0.48090618     0.25720169     0.028181806  
      1400          88   0.53720904     0.53720904     0.28593154     0.033696447  
      1500          88   0.53410901     0.53410901     0.28416505     0.026415257  
      1600          88   0.48829851     0.48829851     0.26171208     0.025075778  
      1700          99   0.39402573     0.39402573     0.21222374     0.027573931  
      1800          99   0.31066696     0.31066696     0.17015281     0.019152911  
      1900          99   0.28439143     0.28439143     0.15704172     0.016687345  
      2000          99   0.23255799     0.23255799     0.13105018     0.013296377  
      2100          99   0.27331089     0.27331089     0.14842059     0.024096789  
      2200          99   0.17689081     0.17689081     0.10014033     0.030001113  
      2300          98   0.13931362     0.13931362     0.081472003    0.0083618469 
      2400          98   0.06221539     0.06221539     0.041969005    0.010482717  
      2500          98   0.043801144    0.043801144    0.031032907    0.0025291367 
      2600          98   0.031120301    0.031120301    0.022267066    0.0078044024 
      2700          98   0.020181867    0.020181867    0.015088456    0.0012971351 
      2800          98   0.015007651    0.015007651    0.011941967    0.0010174368 
      2900          97   0.010539433    0.010539433    0.0085703471   0.0020973078 
      3000          97   0.0085516307   0.0085516307   0.0071909252   0.0012562629 
      3100          97   0.0072416384   0.0072416384   0.0059967547   0.0029999188 
      3200          97   0.0059119377   0.0059119377   0.0049942981   0.0032043585 
      3300          97   0.0039489433   0.0039489433   0.0034913496   0.0014077367 
      3400          97   0.0029024166   0.0029024166   0.002735738    0.0039980922 
      3500          97   0.002281942    0.002281942    0.002307813    0.00037881615
      3600          97   0.0017743879   0.0017743879   0.0019222835   0.00057632908
      3700          97   0.0014719251   0.0014719251   0.0016882968   0.00049139385
      3800          97   0.001186004    0.001186004    0.00148962     0.00044703823
      3900          97   0.00091330267  0.00091330267  0.0013197554   0.00031550711
      4000          97   0.00075945491  0.00075945491  0.00099470305  0.00035077164
      4100          97   0.00071700139  0.00071700139  0.00089020409  0.00075612811
      4200          97   0.00064782976  0.00064782976  0.00075100865  0.00053343048
      4300          97   0.00066056388  0.00066056388  0.00075504037  0.00037231392
      4400          97   0.00063375026  0.00063375026  0.0007199505   0.00040961219
      4500          97   0.00056025575  0.00056025575  0.00065188332  0.00050312593
      4600          97   0.00055193734  0.00055193734  0.00066189187  0.00069688995
      4700          97   0.00040278842  0.00040278842  0.00049649703  0.00052839066
      4800          97   0.00039007315  0.00039007315  0.00046013914  0.00046427263
      4900          97   0.00038717953  0.00038717953  0.00046842904  0.00041271143
      5000          97   0.00038172344  0.00038172344  0.00045711287  0.00047639765
Loop time of 0.238615 on 1 procs for 5000 steps with 97 atoms

Performance: 9052231.754 tau/day, 20954.240 timesteps/s, 2.033 Matom-step/s
98.5% CPU use with 1 MPI tasks x no OpenMP threads

MPI task timing breakdown:
Section |  min time  |  avg time  |  max time  |%varavg| %total
---------------------------------------------------------------
Pair    | 0.014605   | 0.014605   | 0.014605   |   0.0 |  6.12
Neigh   | 0.0048425  | 0.0048425  | 0.0048425  |   0.0 |  2.03
Comm    | 0.00052747 | 0.00052747 | 0.00052747 |   0.0 |  0.22
Output  | 0.00033513 | 0.00033513 | 0.00033513 |   0.0 |  0.14
Modify  | 0.21671    | 0.21671    | 0.21671    |   0.0 | 90.82
Other   |            | 0.001598   |            |       |  0.67

Nlocal:             97 ave          97 max          97 min
Histogram: 1 0 0 0 0 0 0 0 0 0
Nghost:              0 ave           0 max           0 min
Histogram: 1 0 0 0 0 0 0 0 0 0
Neighs:            161 ave         161 max         161 min
Histogram: 1 0 0 0 0 0 0 0 0 0

Total # of neighbors = 161
Ave neighs/atom = 1.6597938
Neighbor list builds = 316
Dangerous builds = 0

fix_modify      20 move * rotate 0 0 0 0 0 1 25
Fix_modify move:
  turned on motion for 4 surfs
run	            5000
Generated 0 of 1 mixed pair_coeff terms from geometric mixing rule
Per MPI rank memory allocation (min/avg/max) = 17.22 | 17.22 | 17.22 Mbytes
   Step        Atoms         Temp           c_1            c_2           Press     
      5000          97   0.00038172344  0.00038172344  0.00045711287  0.00046825704
      5100          97   0.025726578    0.025726578    0.02546883     0.0033161691 
      5200          93   0.038413934    0.038413934    0.046815133    0.0021011845 
      5300          90   0.040193692    0.040193692    0.048669488    0.0025900248 
      5400          89   0.041627055    0.041627055    0.049806794    0.003417761  
      5500          88   0.043895611    0.043895611    0.051071861    0.0036695787 
      5600          86   0.045264547    0.045264547    0.05176204     0.0041578579 
      5700          85   0.048244784    0.048244784    0.052443205    0.0028882523 
      5800          83   0.05307151     0.05307151     0.052714395    0.0032848542 
      5900          80   0.054974126    0.054974126    0.052216434    0.0025418262 
      6000          78   0.056825111    0.056825111    0.051557971    0.0030080831 
      6100          77   0.059828904    0.059828904    0.052595934    0.0025689011 
      6200          75   0.061610488    0.061610488    0.052439218    0.0047262081 
      6300          74   0.064897284    0.064897284    0.053385403    0.003498139  
      6400          71   0.066816101    0.066816101    0.053322571    0.0026763107 
      6500          70   0.068193647    0.068193647    0.053735162    0.0026827045 
      6600          69   0.068470018    0.068470018    0.054147738    0.0026779606 
      6700          68   0.069382237    0.069382237    0.053778504    0.0026752879 
      6800          66   0.068295073    0.068295073    0.052945937    0.0025301758 
      6900          66   0.067957168    0.067957168    0.053452148    0.0025795922 
      7000          66   0.067134166    0.067134166    0.053582305    0.002846514  
      7100          66   0.066948515    0.066948515    0.054385168    0.0024864571 
      7200          65   0.066150192    0.066150192    0.054893368    0.0024312249 
      7300          64   0.066438458    0.066438458    0.054915286    0.0024968935 
      7400          62   0.064021294    0.064021294    0.053738714    0.0029203941 
      7500          62   0.063375432    0.063375432    0.054505177    0.0030131429 
      7600          60   0.06261575     0.06261575     0.054108252    0.0022316921 
      7700          59   0.061245951    0.061245951    0.054223415    0.0034420261 
      7800          57   0.060038363    0.060038363    0.054371687    0.0019041835 
      7900          57   0.060148189    0.060148189    0.054892491    0.0022031156 
      8000          55   0.074704767    0.074704767    0.061111914    0.0037645849 
      8100          55   0.074892017    0.074892017    0.062261241    0.0024036746 
      8200          53   0.064042123    0.064042123    0.056768913    0.0020340494 
      8300          52   0.06151329     0.06151329     0.056232347    0.0017836901 
      8400          51   0.064303864    0.064303864    0.056691091    0.0031129458 
      8500          50   0.066817541    0.066817541    0.060103603    0.0018560428 
      8600          48   0.059798033    0.059798033    0.056367164    0.0015932583 
      8700          46   0.059769162    0.059769162    0.057178413    0.0015405056 
      8800          44   0.05769947     0.05769947     0.057070562    0.0014065063 
      8900          44   0.057117639    0.057117639    0.057970966    0.0013923234 
      9000          42   0.057876801    0.057876801    0.058470199    0.0013452091 
      9100          41   0.057483633    0.057483633    0.059805259    0.0013034837 
      9200          40   0.056628388    0.056628388    0.060640165    0.0012498258 
      9300          38   0.055894187    0.055894187    0.058879259    0.0011723837 
      9400          37   0.053728552    0.053728552    0.056204046    0.0010965011 
      9500          37   0.054487914    0.054487914    0.057991202    0.0011119982 
      9600          37   0.056027611    0.056027611    0.060496476    0.0011560271 
      9700          36   0.059229499    0.059229499    0.061376802    0.0011750346 
      9800          36   0.0608373      0.0608373      0.063316822    0.0011984445 
      9900          34   0.05687568     0.05687568     0.059449202    0.0010640008 
     10000          34   0.058499605    0.058499605    0.060534913    0.0013565037 
Loop time of 0.207391 on 1 procs for 5000 steps with 34 atoms

Performance: 10415108.569 tau/day, 24109.048 timesteps/s, 819.708 katom-step/s
99.7% CPU use with 1 MPI tasks x no OpenMP threads

MPI task timing breakdown:
Section |  min time  |  avg time  |  max time  |%varavg| %total
---------------------------------------------------------------
Pair    | 0.0088749  | 0.0088749  | 0.0088749  |   0.0 |  4.28
Neigh   | 0.0040873  | 0.0040873  | 0.0040873  |   0.0 |  1.97
Comm    | 0.00046614 | 0.00046614 | 0.00046614 |   0.0 |  0.22
Output  | 0.00032734 | 0.00032734 | 0.00032734 |   0.0 |  0.16
Modify  | 0.19228    | 0.19228    | 0.19228    |   0.0 | 92.71
Other   |            | 0.00136    |            |       |  0.66

Nlocal:             34 ave          34 max          34 min
Histogram: 1 0 0 0 0 0 0 0 0 0
Nghost:              0 ave           0 max           0 min
Histogram: 1 0 0 0 0 0 0 0 0 0
Neighs:             24 ave          24 max          24 min
Histogram: 1 0 0 0 0 0 0 0 0 0

Total # of neighbors = 24
Ave neighs/atom = 0.70588235
Neighbor list builds = 333
Dangerous builds = 0

fix_modify      20 move * none
Fix_modify move:
  turned off motion for 0 surfs
run             5000
Generated 0 of 1 mixed pair_coeff terms from geometric mixing rule
Per MPI rank memory allocation (min/avg/max) = 17.22 | 17.22 | 17.22 Mbytes
   Step        Atoms         Temp           c_1            c_2           Press     
     10000          34   0.058499605    0.058499605    0.060534913    0.0012972341 
     10100          34   0.024515991    0.024515991    0.021056247    0.00046521691
     10200          32   0.008354521    0.008354521    0.0079612163   0.00014681981
     10300          32   0.0082057375   0.0082057375   0.0079439156   0.00014420514
     10400          32   0.0076911387   0.0076911387   0.0076168347   0.00013516174
     10500          32   0.0069099471   0.0069099471   0.0069757369   0.00047573447
     10600          32   0.0068331392   0.0068331392   0.0070345044   0.00012008351
     10700          32   0.0068734994   0.0068734994   0.0070735752   0.00012079279
     10800          32   0.0071528133   0.0071528133   0.0074767335   0.00012570137
     10900          32   0.0062836813   0.0062836813   0.0071178476   0.00010757206
     11000          32   0.0058843313   0.0058843313   0.0071681345   0.00010340945
     11100          32   0.0057067333   0.0057067333   0.0074479914   0.0001002884 
     11200          32   0.0056389924   0.0056389924   0.0077457342   0.00011153039
     11300          32   0.0060675141   0.0060675141   0.0085374952   0.00010662865
     11400          32   0.0073346663   0.0073346663   0.0097960603   0.0001288972 
     11500          32   0.0056592626   0.0056592626   0.0092735031   9.9454161e-05
     11600          31   0.0052736504   0.0052736504   0.0097965788   8.9687932e-05
     11700          31   0.0043869052   0.0043869052   0.0089476682   0.00020394942
     11800          31   0.0043994509   0.0043994509   0.0087642922   0.0001976345 
     11900          31   0.0042384646   0.0042384646   0.0086040737   0.00017544096
     12000          31   0.0049694633   0.0049694633   0.0093463097   0.00017213304
     12100          31   0.0038262985   0.0038262985   0.0087211298   0.00019631508
     12200          30   0.0038652186   0.0038652186   0.0072316538   0.00015065943
     12300          30   0.0039230581   0.0039230581   0.0078140299   0.00013634156
     12400          30   0.003769477    0.003769477    0.0082108902   0.00011323483
     12500          30   0.0034029453   0.0034029453   0.0077324171   0.00023306821
     12600          30   0.0029368338   0.0029368338   0.0066725533   0.00013098872
     12700          30   0.0026275305   0.0026275305   0.0061280175   0.00029850611
     12800          30   0.0023683678   0.0023683678   0.0058226981   0.00013437115
     12900          30   0.0023798807   0.0023798807   0.0057819046   0.00011455689
     13000          29   0.0023317851   0.0023317851   0.0039035753   0.00010344142
     13100          29   0.0023519039   0.0023519039   0.003919879    0.00010213323
     13200          28   0.0018885501   0.0018885501   0.0024796598   0.00010334679
     13300          28   0.0018920647   0.0018920647   0.0024772308   8.789848e-05 
     13400          28   0.0016856413   0.0016856413   0.002251956    7.8893105e-05
     13500          28   0.001764759    0.001764759    0.0024581482   7.9775426e-05
     13600          28   0.0017520955   0.0017520955   0.0023860133   8.1301966e-05
     13700          28   0.0017449843   0.0017449843   0.0023994056   9.1862129e-05
     13800          28   0.0018049894   0.0018049894   0.0024595624   0.0001105628 
     13900          28   0.0019708846   0.0019708846   0.0025998056   0.00011207618
     14000          28   0.0024629204   0.0024629204   0.0029657908   0.0001048153 
     14100          28   0.0033989897   0.0033989897   0.0035163593   0.0001182981 
     14200          28   0.0016098197   0.0016098197   0.0024339604   7.3729434e-05
     14300          28   0.0017124679   0.0017124679   0.0025092939   8.6742721e-05
     14400          27   0.0020367164   0.0020367164   0.0026266965   4.4682823e-05
     14500          26   0.0012007605   0.0012007605   0.0020185771   1.9404441e-05
     14600          26   0.001373067    0.001373067    0.0024644557   2.8260195e-05
     14700          26   0.0014410074   0.0014410074   0.0026205244   5.3667395e-05
     14800          26   0.0014240986   0.0014240986   0.0027028224   0.00022663466
     14900          26   0.0015461924   0.0015461924   0.0029575663   6.1282414e-05
     15000          26   0.0016345353   0.0016345353   0.0032666357   0.0003445834 
Loop time of 0.0994622 on 1 procs for 5000 steps with 26 atoms

Performance: 21716792.694 tau/day, 50270.353 timesteps/s, 1.307 Matom-step/s
99.7% CPU use with 1 MPI tasks x no OpenMP threads

MPI task timing breakdown:
Section |  min time  |  avg time  |  max time  |%varavg| %total
---------------------------------------------------------------
Pair    | 0.0029878  | 0.0029878  | 0.0029878  |   0.0 |  3.00
Neigh   | 0.00039867 | 0.00039867 | 0.00039867 |   0.0 |  0.40
Comm    | 0.00037018 | 0.00037018 | 0.00037018 |   0.0 |  0.37
Output  | 0.00026345 | 0.00026345 | 0.00026345 |   0.0 |  0.26
Modify  | 0.094535   | 0.094535   | 0.094535   |   0.0 | 95.05
Other   |            | 0.0009071  |            |       |  0.91

Nlocal:             26 ave          26 max          26 min
Histogram: 1 0 0 0 0 0 0 0 0 0
Nghost:              0 ave           0 max           0 min
Histogram: 1 0 0 0 0 0 0 0 0 0
Neighs:              9 ave           9 max           9 min
Histogram: 1 0 0 0 0 0 0 0 0 0

Total # of neighbors = 9
Ave neighs/atom = 0.34615385
Neighbor list builds = 53
Dangerous builds = 0
Total wall time: 0:00:00
