LAMMPS (17 Apr 2024)
  using 1 OpenMP thread(s) per MPI task
WARNING: Atom style hybrid defines both, per-type and per-atom masses; both must be set, but only per-atom masses will be used (src/atom_vec_hybrid.cpp:132)
Reading data file ...
  orthogonal box = (-20 -20 -20) to (20 20 20)
  1 by 1 by 1 MPI processor grid
  reading atoms ...
  10 atoms
  reading velocities ...
  10 velocities
  scanning bonds ...
  1 = max bonds/atom
  10 ellipsoids
  orthogonal box = (-20 -20 -20) to (20 20 20)
  1 by 1 by 1 MPI processor grid
  reading bonds ...
  8 bonds
Finding 1-2 1-3 1-4 neighbors ...
  special bond factors lj:    0        0        0       
  special bond factors coul:  0        0        0       
     2 = max # of 1-2 neighbors
     2 = max # of 1-3 neighbors
     2 = max # of 1-4 neighbors
     4 = max # of special neighbors
  special bonds CPU = 0.000 seconds
  read_data CPU = 0.005 seconds
Setting atom values ...
  10 settings made for mass
10 atoms in group all
Reading oxdna potential (fene) file oxdna2.lj with DATE: 2024-04-21
Finding 1-2 1-3 1-4 neighbors ...
  special bond factors lj:    0        1        1       
  special bond factors coul:  0        0        0       
     2 = max # of 1-2 neighbors
     2 = max # of 1-3 neighbors
     2 = max # of 1-4 neighbors
     4 = max # of special neighbors
  special bonds CPU = 0.000 seconds
Reading oxdna potential (excv) file oxdna2.lj with DATE: 2024-04-21
Reading oxdna potential (stk) file oxdna2.lj with DATE: 2024-04-21
Reading oxdna potential (hbond) file oxdna2.lj with DATE: 2024-04-21
Reading oxdna potential (hbond) file oxdna2.lj with DATE: 2024-04-21
Reading oxdna potential (hbond) file oxdna2.lj with DATE: 2024-04-21
Reading oxdna potential (xstk) file oxdna2.lj with DATE: 2024-04-21
Reading oxdna potential (coaxstk) file oxdna2.lj with DATE: 2024-04-21
Reading oxdna potential (dh) file oxdna2.lj with DATE: 2024-04-21
Generated 0 of 6 mixed pair_coeff terms from geometric mixing rule
Neighbor list info ...
  update: every = 1 steps, delay = 0 steps, check = yes
  max neighbors/atom: 2000, page size: 100000
  master list distance cutoff = 4.3014979
  ghost atom cutoff = 4.3014979
  binsize = 2.150749, bins = 19 19 19
  5 neighbor lists, perpetual/occasional/extra = 5 0 0
  (1) pair oxdna2/excv, perpetual
      attributes: half, newton on
      pair build: half/bin/newton
      stencil: half/bin/3d
      bin: standard
  (2) pair oxdna2/hbond, perpetual, copy from (1)
      attributes: half, newton on
      pair build: copy
      stencil: none
      bin: none
  (3) pair oxdna2/xstk, perpetual, copy from (1)
      attributes: half, newton on
      pair build: copy
      stencil: none
      bin: none
  (4) pair oxdna2/coaxstk, perpetual, copy from (1)
      attributes: half, newton on
      pair build: copy
      stencil: none
      bin: none
  (5) pair oxdna2/dh, perpetual, copy from (1)
      attributes: half, newton on
      pair build: copy
      stencil: none
      bin: none
Setting up Verlet run ...
  Unit style    : lj
  Current step  : 0
  Time step     : 1e-05
WARNING: Communication cutoff adjusted to 4.301497916929199 (src/comm.cpp:739)
0  ekin = 1.10853632272819 |  erot = 2.81573649976629 | epot = -12.4543859162177 | etot = -8.53011309372317
Per MPI rank memory allocation (min/avg/max) = 7.467 | 7.467 | 7.467 Mbytes
   Step          Temp          E_pair         E_mol          TotEng         Press          Volume    
         0   0.082113802   -1.3525648      0.10712616    -1.134585      -6.3346859e-05  64000        
1000  ekin = 1.07575988625876 |  erot = 2.91276427031684 | epot = -12.5186372505575 | etot = -8.53011309398185
2000  ekin = 1.05292961692331 |  erot = 3.00631080619825 | epot = -12.5893535174382 | etot = -8.53011309431664
3000  ekin = 1.0404793567822 |  erot = 3.09099198685794 | epot = -12.6615844383056 | etot = -8.5301130946655
4000  ekin = 1.03797149598187 |  erot = 3.16182957406825 | epot = -12.7299141650203 | etot = -8.53011309497013
5000  ekin = 1.04436175992637 |  erot = 3.21484050133169 | epot = -12.7893153564536 | etot = -8.53011309519554
6000  ekin = 1.058261961669 |  erot = 3.24734130245542 | epot = -12.8357163594551 | etot = -8.53011309533065
7000  ekin = 1.07813397987529 |  erot = 3.25800057687377 | epot = -12.8662476521273 | etot = -8.5301130953782
8000  ekin = 1.10242233608904 |  erot = 3.2467735191286 | epot = -12.8793089505567 | etot = -8.53011309533902
9000  ekin = 1.129661928832 |  erot = 3.21481512313353 | epot = -12.8745901471786 | etot = -8.53011309521308
10000  ekin = 1.1585736522661 |  erot = 3.16442800302926 | epot = -12.8531147503057 | etot = -8.53011309501037
   10000   0.12183326    -1.2831408      0.035021017   -1.0836448      3.258552e-05   64000        
Loop time of 11.8041 on 1 procs for 1000000 steps with 10 atoms

Performance: 73194.863 tau/day, 84716.277 timesteps/s, 847.163 katom-step/s
99.5% CPU use with 1 MPI tasks x 1 OpenMP threads

MPI task timing breakdown:
Section |  min time  |  avg time  |  max time  |%varavg| %total
---------------------------------------------------------------
Pair    | 9.445      | 9.445      | 9.445      |   0.0 | 80.01
Bond    | 0.46517    | 0.46517    | 0.46517    |   0.0 |  3.94
Neigh   | 0.006341   | 0.006341   | 0.006341   |   0.0 |  0.05
Comm    | 0.2823     | 0.2823     | 0.2823     |   0.0 |  2.39
Output  | 0.12112    | 0.12112    | 0.12112    |   0.0 |  1.03
Modify  | 1.1786     | 1.1786     | 1.1786     |   0.0 |  9.98
Other   |            | 0.3055     |            |       |  2.59

Nlocal:             10 ave          10 max          10 min
Histogram: 1 0 0 0 0 0 0 0 0 0
Nghost:              0 ave           0 max           0 min
Histogram: 1 0 0 0 0 0 0 0 0 0
Neighs:             37 ave          37 max          37 min
Histogram: 1 0 0 0 0 0 0 0 0 0

Total # of neighbors = 37
Ave neighs/atom = 3.7
Ave special neighs/atom = 3.6
Neighbor list builds = 1000
Dangerous builds = 0
System init for write_data ...
Generated 0 of 6 mixed pair_coeff terms from geometric mixing rule
Total wall time: 0:00:11
