LAMMPS (11 Feb 2026 - Development - patch_10Dec2025-1372-ged4f75871d)
variable number equal 1
variable ofreq  equal 1000
variable efreq  equal 1000
variable T      equal 0.1
variable rhos   equal 0.2

units lj

dimension 3

newton on

boundary  p p p

atom_style hybrid bond ellipsoid oxdna
WARNING: Atom style hybrid defines both, per-type and per-atom masses; both must be set, but only per-atom masses will be used (../atom_vec_hybrid.cpp:132)
atom_modify sort 0 1.0

# Pair interactions require lists of neighbours to be calculated
neighbor 2.0 bin
neigh_modify every 1 delay 0 check yes

read_data data.duplex1
Reading data file ...
  orthogonal box = (-20 -20 -20) to (20 20 20)
  1 by 1 by 1 MPI processor grid
  reading atoms ...
  10 atoms
  reading velocities ...
  10 velocities
  scanning bonds ...
  1 = max bonds/atom
  10 ellipsoids
  orthogonal box = (-20 -20 -20) to (20 20 20)
  1 by 1 by 1 MPI processor grid
  reading bonds ...
  8 bonds
Finding 1-2 1-3 1-4 neighbors ...
  special bond factors lj:    0        0        0       
  special bond factors coul:  0        0        0       
     2 = max # of 1-2 neighbors
     2 = max # of 1-3 neighbors
     2 = max # of 1-4 neighbors
     4 = max # of special neighbors
  special bonds CPU = 0.000 seconds
  read_data CPU = 0.003 seconds

set atom * mass 3.1575
Setting atom values ...
  10 settings made for mass

group all type 1 4
10 atoms in group all

# oxDNA2 bond interactions - FENE backbone
bond_style oxdna2/fene
bond_coeff * oxdna2_lj.cgdna
Reading oxdna potential (fene) file oxdna2_lj.cgdna with DATE: 2026-03-04
special_bonds lj 0 1 1
Finding 1-2 1-3 1-4 neighbors ...
  special bond factors lj:    0        1        1       
  special bond factors coul:  0        0        0       
     2 = max # of 1-2 neighbors
     2 = max # of 1-3 neighbors
     2 = max # of 1-4 neighbors
     4 = max # of special neighbors
  special bonds CPU = 0.000 seconds

# oxDNA2 pair interactions
pair_style hybrid/overlay oxdna2/excv oxdna2/stk oxdna2/hbond oxdna2/xstk oxdna2/coaxstk oxdna2/dh
pair_coeff * * oxdna2/excv    oxdna2_lj.cgdna
Reading oxdna potential (excv) file oxdna2_lj.cgdna with DATE: 2026-03-04
pair_coeff * * oxdna2/stk     seqdep 0.1 oxdna2_lj.cgdna
Reading oxdna potential (stk) file oxdna2_lj.cgdna with DATE: 2026-03-04
pair_coeff * * oxdna2/hbond   seqdep oxdna2_lj.cgdna
Reading oxdna potential (hbond) file oxdna2_lj.cgdna with DATE: 2026-03-04
pair_coeff 1 4 oxdna2/hbond   seqdep oxdna2_lj.cgdna
Reading oxdna potential (hbond) file oxdna2_lj.cgdna with DATE: 2026-03-04
pair_coeff 2 3 oxdna2/hbond   seqdep oxdna2_lj.cgdna
Reading oxdna potential (hbond) file oxdna2_lj.cgdna with DATE: 2026-03-04
pair_coeff * * oxdna2/xstk    oxdna2_lj.cgdna
Reading oxdna potential (xstk) file oxdna2_lj.cgdna with DATE: 2026-03-04
pair_coeff * * oxdna2/coaxstk oxdna2_lj.cgdna
Reading oxdna potential (coaxstk) file oxdna2_lj.cgdna with DATE: 2026-03-04
pair_coeff * * oxdna2/dh      0.1 0.5 oxdna2_lj.cgdna
Reading oxdna potential (dh) file oxdna2_lj.cgdna with DATE: 2026-03-04

# NVE ensemble
fix 1 all nve/asphere
#fix 2 all langevin ${T} ${T} 2.5 457145 angmom 10

timestep 1e-5

#comm_style tiled
fix 3 all balance 1000 1.03 shift xyz 10 1.03
comm_modify cutoff 3.8

compute quat all property/atom quatw quati quatj quatk

compute erot all erotate/asphere
compute ekin all ke
compute epot all pe
variable erot equal c_erot
variable ekin equal c_ekin
variable epot equal c_epot
variable etot equal c_erot+c_ekin+c_epot
fix 5 all print ${efreq} "$(step)  ekin = ${ekin} |  erot = ${erot} | epot = ${epot} | etot = ${etot}" screen yes
fix 5 all print 1000 "$(step)  ekin = ${ekin} |  erot = ${erot} | epot = ${epot} | etot = ${etot}" screen yes

dump out all custom ${ofreq} out.${number}.lammpstrj id mol type x y z ix iy iz vx vy vz c_quat[1] c_quat[2] c_quat[3] c_quat[4] angmomx angmomy angmomz
dump out all custom 1000 out.${number}.lammpstrj id mol type x y z ix iy iz vx vy vz c_quat[1] c_quat[2] c_quat[3] c_quat[4] angmomx angmomy angmomz
dump out all custom 1000 out.1.lammpstrj id mol type x y z ix iy iz vx vy vz c_quat[1] c_quat[2] c_quat[3] c_quat[4] angmomx angmomy angmomz
dump_modify out sort id
dump_modify out format line "%d %d %d  %22.15le %22.15le %22.15le  %d %d %d  %22.15le %22.15le %22.15le  %22.15le %22.15le %22.15le %22.15le  %22.15le %22.15le %22.15le"

run 10000
Generated 0 of 6 mixed pair_coeff terms from geometric mixing rule
Neighbor list info ...
  update: every = 1 steps, delay = 0 steps, check = yes
  max neighbors/atom: 2000, page size: 100000
  master list distance cutoff = 4.3014979
  ghost atom cutoff = 4.3014979
  binsize = 2.150749, bins = 19 19 19
  5 neighbor lists, perpetual/occasional/extra = 5 0 0
  (1) pair oxdna2/excv, perpetual
      attributes: half, newton on
      pair build: half/bin/newton
      stencil: half/bin/3d
      bin: standard
  (2) pair oxdna2/hbond, perpetual, copy from (1)
      attributes: half, newton on
      pair build: copy
      stencil: none
      bin: none
  (3) pair oxdna2/xstk, perpetual, copy from (1)
      attributes: half, newton on
      pair build: copy
      stencil: none
      bin: none
  (4) pair oxdna2/coaxstk, perpetual, copy from (1)
      attributes: half, newton on
      pair build: copy
      stencil: none
      bin: none
  (5) pair oxdna2/dh, perpetual, copy from (1)
      attributes: half, newton on
      pair build: copy
      stencil: none
      bin: none
WARNING: Communication cutoff adjusted to 4.301497916929199 (../comm.cpp:703)
0  ekin = 1.10853632272819 |  erot = 2.81573649976629 | epot = -12.4543859162177 | etot = -8.53011309372317
Per MPI rank memory allocation (min/avg/max) = 8.717 | 8.717 | 8.717 Mbytes
   Step          Temp          E_pair         E_mol          TotEng         Press          Volume    
         0   0.082113802   -1.3525648      0.10712616    -1.134585      -6.3346859e-05  64000        
1000  ekin = 1.07575988625876 |  erot = 2.91276427031684 | epot = -12.5186372505575 | etot = -8.53011309398187
2000  ekin = 1.05292961692331 |  erot = 3.00631080619826 | epot = -12.5893535174382 | etot = -8.53011309431663
3000  ekin = 1.04047935678221 |  erot = 3.09099198685796 | epot = -12.6615844383057 | etot = -8.53011309466551
4000  ekin = 1.03797149598188 |  erot = 3.16182957406828 | epot = -12.7299141650203 | etot = -8.53011309497019
5000  ekin = 1.04436175992637 |  erot = 3.21484050133172 | epot = -12.7893153564537 | etot = -8.53011309519557
6000  ekin = 1.058261961669 |  erot = 3.24734130245546 | epot = -12.8357163594551 | etot = -8.53011309533065
7000  ekin = 1.07813397987529 |  erot = 3.25800057687382 | epot = -12.8662476521273 | etot = -8.5301130953782
8000  ekin = 1.10242233608903 |  erot = 3.24677351912865 | epot = -12.8793089505567 | etot = -8.53011309533905
9000  ekin = 1.12966192883199 |  erot = 3.21481512313357 | epot = -12.8745901471787 | etot = -8.5301130952131
10000  ekin = 1.15857365226609 |  erot = 3.1644280030293 | epot = -12.8531147503058 | etot = -8.53011309501039
     10000   0.085820271   -1.3206684      0.035356882   -1.1694541     -2.6957545e-05  64000        
Loop time of 0.067958 on 1 procs for 10000 steps with 10 atoms

Performance: 127137.350 tau/day, 147149.710 timesteps/s, 1.471 Matom-step/s
99.7% CPU use with 1 MPI tasks x no OpenMP threads

MPI task timing breakdown:
Section |  min time  |  avg time  |  max time  |%varavg| %total
---------------------------------------------------------------
Pair    | 0.054407   | 0.054407   | 0.054407   |   0.0 | 80.06
Bond    | 0.002636   | 0.002636   | 0.002636   |   0.0 |  3.88
Neigh   | 5.5e-05    | 5.5e-05    | 5.5e-05    |   0.0 |  0.08
Comm    | 0.001023   | 0.001023   | 0.001023   |   0.0 |  1.51
Output  | 0.000558   | 0.000558   | 0.000558   |   0.0 |  0.82
Modify  | 0.00835    | 0.00835    | 0.00835    |   0.0 | 12.29
Other   |            | 0.000929   |            |       |  1.37

Nlocal:             10 ave          10 max          10 min
Histogram: 1 0 0 0 0 0 0 0 0 0
Nghost:              0 ave           0 max           0 min
Histogram: 1 0 0 0 0 0 0 0 0 0
Neighs:             45 ave          45 max          45 min
Histogram: 1 0 0 0 0 0 0 0 0 0

Total # of neighbors = 45
Ave neighs/atom = 4.5
Ave special neighs/atom = 3.6
Neighbor list builds = 10
Dangerous builds = 0

write_data last_config.${number}.* nocoeff
write_data last_config.1.* nocoeff
System init for write_data ...
Generated 0 of 6 mixed pair_coeff terms from geometric mixing rule
#write_restart last_config.${number}.*
Total wall time: 0:00:00
