LAMMPS (17 Apr 2024)
  using 1 OpenMP thread(s) per MPI task
WARNING: Atom style hybrid defines both, per-type and per-atom masses; both must be set, but only per-atom masses will be used (src/atom_vec_hybrid.cpp:132)
Reading data file ...
  orthogonal box = (-20 -20 -20) to (20 20 20)
  1 by 2 by 2 MPI processor grid
  reading atoms ...
  10 atoms
  reading velocities ...
  10 velocities
  scanning bonds ...
  1 = max bonds/atom
  10 ellipsoids
  orthogonal box = (-20 -20 -20) to (20 20 20)
  1 by 2 by 2 MPI processor grid
  reading bonds ...
  8 bonds
Finding 1-2 1-3 1-4 neighbors ...
  special bond factors lj:    0        0        0       
  special bond factors coul:  0        0        0       
     2 = max # of 1-2 neighbors
     2 = max # of 1-3 neighbors
     2 = max # of 1-4 neighbors
     4 = max # of special neighbors
  special bonds CPU = 0.001 seconds
  read_data CPU = 0.008 seconds
Setting atom values ...
  10 settings made for mass
10 atoms in group all
Reading oxdna potential (fene) file oxdna2.lj with DATE: 2024-04-21
Finding 1-2 1-3 1-4 neighbors ...
  special bond factors lj:    0        1        1       
  special bond factors coul:  0        0        0       
     2 = max # of 1-2 neighbors
     2 = max # of 1-3 neighbors
     2 = max # of 1-4 neighbors
     4 = max # of special neighbors
  special bonds CPU = 0.000 seconds
Reading oxdna potential (excv) file oxdna2.lj with DATE: 2024-04-21
Reading oxdna potential (stk) file oxdna2.lj with DATE: 2024-04-21
Reading oxdna potential (hbond) file oxdna2.lj with DATE: 2024-04-21
Reading oxdna potential (hbond) file oxdna2.lj with DATE: 2024-04-21
Reading oxdna potential (hbond) file oxdna2.lj with DATE: 2024-04-21
Reading oxdna potential (xstk) file oxdna2.lj with DATE: 2024-04-21
Reading oxdna potential (coaxstk) file oxdna2.lj with DATE: 2024-04-21
Reading oxdna potential (dh) file oxdna2.lj with DATE: 2024-04-21
Generated 0 of 6 mixed pair_coeff terms from geometric mixing rule
Neighbor list info ...
  update: every = 1 steps, delay = 0 steps, check = yes
  max neighbors/atom: 2000, page size: 100000
  master list distance cutoff = 4.3014979
  ghost atom cutoff = 4.3014979
  binsize = 2.150749, bins = 19 19 19
  5 neighbor lists, perpetual/occasional/extra = 5 0 0
  (1) pair oxdna2/excv, perpetual
      attributes: half, newton on
      pair build: half/bin/newton
      stencil: half/bin/3d
      bin: standard
  (2) pair oxdna2/hbond, perpetual, copy from (1)
      attributes: half, newton on
      pair build: copy
      stencil: none
      bin: none
  (3) pair oxdna2/xstk, perpetual, copy from (1)
      attributes: half, newton on
      pair build: copy
      stencil: none
      bin: none
  (4) pair oxdna2/coaxstk, perpetual, copy from (1)
      attributes: half, newton on
      pair build: copy
      stencil: none
      bin: none
  (5) pair oxdna2/dh, perpetual, copy from (1)
      attributes: half, newton on
      pair build: copy
      stencil: none
      bin: none
Setting up Verlet run ...
  Unit style    : lj
  Current step  : 0
  Time step     : 1e-05
WARNING: Communication cutoff adjusted to 4.301497916929199 (src/comm.cpp:739)
0  ekin = 1.10853632272819 |  erot = 2.81573649976629 | epot = -12.4543859162177 | etot = -8.5301130937232
Per MPI rank memory allocation (min/avg/max) = 7.451 | 7.452 | 7.453 Mbytes
   Step          Temp          E_pair         E_mol          TotEng         Press          Volume    
         0   0.082113802   -1.3525648      0.10712616    -1.134585      -6.3346859e-05  64000        
1000  ekin = 1.07575988625876 |  erot = 2.91276427031684 | epot = -12.5186372505574 | etot = -8.53011309398184
2000  ekin = 1.05292961692331 |  erot = 3.00631080619826 | epot = -12.5893535174382 | etot = -8.53011309431666
3000  ekin = 1.0404793567822 |  erot = 3.09099198685795 | epot = -12.6615844383057 | etot = -8.53011309466551
4000  ekin = 1.03797149598187 |  erot = 3.16182957406827 | epot = -12.7299141650203 | etot = -8.53011309497019
5000  ekin = 1.04436175992636 |  erot = 3.21484050133171 | epot = -12.7893153564538 | etot = -8.53011309519572
6000  ekin = 1.05826196166896 |  erot = 3.24734130245545 | epot = -12.8357163594552 | etot = -8.53011309533081
7000  ekin = 1.07813397987524 |  erot = 3.25800057687381 | epot = -12.8662476521274 | etot = -8.53011309537834
8000  ekin = 1.10242233608897 |  erot = 3.24677351912865 | epot = -12.8793089505568 | etot = -8.53011309533922
9000  ekin = 1.12966192883192 |  erot = 3.21481512313357 | epot = -12.8745901471787 | etot = -8.53011309521326
10000  ekin = 1.15857365226601 |  erot = 3.16442800302929 | epot = -12.8531147503058 | etot = -8.53011309501054
   10000   0.12183326    -1.2831408      0.035021017   -1.0836448      3.258552e-05   64000        
Loop time of 11.3718 on 4 procs for 1000000 steps with 10 atoms

Performance: 75977.257 tau/day, 87936.641 timesteps/s, 879.366 katom-step/s
99.9% CPU use with 4 MPI tasks x 1 OpenMP threads

MPI task timing breakdown:
Section |  min time  |  avg time  |  max time  |%varavg| %total
---------------------------------------------------------------
Pair    | 3.222      | 4.604      | 6.7099     |  60.2 | 40.49
Bond    | 0.14199    | 0.20499    | 0.26671    |  11.1 |  1.80
Neigh   | 0.004255   | 0.0043152  | 0.004356   |   0.1 |  0.04
Comm    | 2.4232     | 4.8228     | 6.2203     |  65.4 | 42.41
Output  | 0.055097   | 0.058013   | 0.063725   |   1.4 |  0.51
Modify  | 0.41435    | 0.49065    | 0.58017    |  10.8 |  4.31
Other   |            | 1.187      |            |       | 10.44

Nlocal:            2.5 ave           3 max           2 min
Histogram: 2 0 0 0 0 0 0 0 0 2
Nghost:            7.5 ave           8 max           7 min
Histogram: 2 0 0 0 0 0 0 0 0 2
Neighs:           9.25 ave          18 max           3 min
Histogram: 2 0 0 0 0 0 1 0 0 1

Total # of neighbors = 37
Ave neighs/atom = 3.7
Ave special neighs/atom = 3.6
Neighbor list builds = 1000
Dangerous builds = 0
System init for write_data ...
Generated 0 of 6 mixed pair_coeff terms from geometric mixing rule
Total wall time: 0:00:11
