LAMMPS (17 Apr 2024)
  using 1 OpenMP thread(s) per MPI task
WARNING: Atom style hybrid defines both, per-type and per-atom masses; both must be set, but only per-atom masses will be used (src/atom_vec_hybrid.cpp:132)
Reading data file ...
  orthogonal box = (-170 -170 -170) to (170 170 170)
  1 by 2 by 2 MPI processor grid
  reading atoms ...
  10 atoms
  reading velocities ...
  10 velocities
  scanning bonds ...
  1 = max bonds/atom
  10 ellipsoids
  orthogonal box = (-170 -170 -170) to (170 170 170)
  1 by 2 by 2 MPI processor grid
  reading bonds ...
  8 bonds
Finding 1-2 1-3 1-4 neighbors ...
  special bond factors lj:    0        0        0       
  special bond factors coul:  0        0        0       
     2 = max # of 1-2 neighbors
     2 = max # of 1-3 neighbors
     2 = max # of 1-4 neighbors
     4 = max # of special neighbors
  special bonds CPU = 0.001 seconds
  read_data CPU = 0.007 seconds
Setting atom values ...
  10 settings made for mass
10 atoms in group all
Reading oxdna potential (fene) file oxdna2.real with DATE: 2024-04-26
Finding 1-2 1-3 1-4 neighbors ...
  special bond factors lj:    0        1        1       
  special bond factors coul:  0        1        1       
     2 = max # of 1-2 neighbors
     4 = max # of special neighbors
  special bonds CPU = 0.000 seconds
Reading oxdna potential (excv) file oxdna2.real with DATE: 2024-04-26
Reading oxdna potential (stk) file oxdna2.real with DATE: 2024-04-26
Reading oxdna potential (hbond) file oxdna2.real with DATE: 2024-04-26
Reading oxdna potential (hbond) file oxdna2.real with DATE: 2024-04-26
Reading oxdna potential (hbond) file oxdna2.real with DATE: 2024-04-26
Reading oxdna potential (xstk) file oxdna2.real with DATE: 2024-04-26
Reading oxdna potential (coaxstk) file oxdna2.real with DATE: 2024-04-26
Reading oxdna potential (dh) file oxdna2.real with DATE: 2024-04-26
Generated 0 of 6 mixed pair_coeff terms from geometric mixing rule
Neighbor list info ...
  update: every = 1 steps, delay = 0 steps, check = yes
  max neighbors/atom: 2000, page size: 100000
  master list distance cutoff = 36.640032
  ghost atom cutoff = 36.640032
  binsize = 18.320016, bins = 19 19 19
  5 neighbor lists, perpetual/occasional/extra = 5 0 0
  (1) pair oxdna2/excv, perpetual
      attributes: half, newton on
      pair build: half/bin/newton
      stencil: half/bin/3d
      bin: standard
  (2) pair oxdna2/hbond, perpetual, copy from (1)
      attributes: half, newton on
      pair build: copy
      stencil: none
      bin: none
  (3) pair oxdna2/xstk, perpetual, copy from (1)
      attributes: half, newton on
      pair build: copy
      stencil: none
      bin: none
  (4) pair oxdna2/coaxstk, perpetual, copy from (1)
      attributes: half, newton on
      pair build: copy
      stencil: none
      bin: none
  (5) pair oxdna2/dh, perpetual, copy from (1)
      attributes: half, newton on
      pair build: copy
      stencil: none
      bin: none
Setting up Verlet run ...
  Unit style    : real
  Current step  : 0
  Time step     : 0.01706
WARNING: Communication cutoff adjusted to 36.64003240988628 (src/comm.cpp:739)
0  ekin = 6.60687273927977 |  erot = 16.7817849122513 | epot = -73.9029330618621 | etot = -50.5142754103311
Per MPI rank memory allocation (min/avg/max) = 7.451 | 7.452 | 7.453 Mbytes
   Step          Temp          E_pair         E_mol          TotEng         Press          Volume    
         0   246.27432     -80.289462      6.3865285     -67.29606      -0.044626926    39304000     
1000  ekin = 6.41540831684956 |  erot = 17.3249788985168 | epot = -74.2546626270297 | etot = -50.5142754116634
2000  ekin = 6.27991122577835 |  erot = 17.8454504610745 | epot = -74.6396371002369 | etot = -50.514275413384
3000  ekin = 6.20398291945338 |  erot = 18.3140766039219 | epot = -75.0323349385591 | etot = -50.5142754151838
4000  ekin = 6.18636199767566 |  erot = 18.7040547099769 | epot = -75.4046921244024 | etot = -50.5142754167498
5000  ekin = 6.22215732158458 |  erot = 18.9942188143056 | epot = -75.7306515537709 | etot = -50.5142754178807
6000  ekin = 6.30420734178858 |  erot = 19.1708709879918 | epot = -75.9893537482967 | etot = -50.5142754185163
7000  ekin = 6.4241349103898 |  erot = 19.2280244216477 | epot = -76.1664347507275 | etot = -50.51427541869
8000  ekin = 6.57305019042805 |  erot = 19.1666743693583 | epot = -76.2539999782602 | etot = -50.5142754184739
9000  ekin = 6.74208660925288 |  erot = 18.9937209190121 | epot = -76.250082946157 | etot = -50.514275417892
10000  ekin = 6.92290866428223 |  erot = 18.7212338885033 | epot = -76.1584179697745 | etot = -50.514275416989
   10000   443.20455     -80.663303      3.1534956     -65.61983      -0.0074359672   39304000     
Loop time of 10.6878 on 4 procs for 1000000 steps with 10 atoms

Performance: 137.913 ns/day, 0.174 hours/ns, 93564.730 timesteps/s, 935.647 katom-step/s
99.8% CPU use with 4 MPI tasks x 1 OpenMP threads

MPI task timing breakdown:
Section |  min time  |  avg time  |  max time  |%varavg| %total
---------------------------------------------------------------
Pair    | 3.2507     | 4.5103     | 6.3725     |  53.9 | 42.20
Bond    | 0.14129    | 0.19368    | 0.25474    |   9.5 |  1.81
Neigh   | 0.004024   | 0.0040453  | 0.004073   |   0.0 |  0.04
Comm    | 2.2577     | 4.3405     | 5.6343     |  60.5 | 40.61
Output  | 0.06195    | 0.071184   | 0.095935   |   5.4 |  0.67
Modify  | 0.3976     | 0.46641    | 0.55199    |  10.1 |  4.36
Other   |            | 1.102      |            |       | 10.31

Nlocal:            2.5 ave           3 max           2 min
Histogram: 2 0 0 0 0 0 0 0 0 2
Nghost:            7.5 ave           8 max           7 min
Histogram: 2 0 0 0 0 0 0 0 0 2
Neighs:           9.25 ave          18 max           4 min
Histogram: 2 0 0 0 0 1 0 0 0 1

Total # of neighbors = 37
Ave neighs/atom = 3.7
Ave special neighs/atom = 1.6
Neighbor list builds = 1000
Dangerous builds = 0
System init for write_data ...
Generated 0 of 6 mixed pair_coeff terms from geometric mixing rule
Total wall time: 0:00:10
