LAMMPS (17 Apr 2024)
  using 1 OpenMP thread(s) per MPI task
WARNING: Atom style hybrid defines both, per-type and per-atom masses; both must be set, but only per-atom masses will be used (src/atom_vec_hybrid.cpp:132)
Reading data file ...
  orthogonal box = (-170 -170 -170) to (170 170 170)
  1 by 1 by 1 MPI processor grid
  reading atoms ...
  10 atoms
  reading velocities ...
  10 velocities
  scanning bonds ...
  1 = max bonds/atom
  10 ellipsoids
  orthogonal box = (-170 -170 -170) to (170 170 170)
  1 by 1 by 1 MPI processor grid
  reading bonds ...
  8 bonds
Finding 1-2 1-3 1-4 neighbors ...
  special bond factors lj:    0        0        0       
  special bond factors coul:  0        0        0       
     2 = max # of 1-2 neighbors
     2 = max # of 1-3 neighbors
     2 = max # of 1-4 neighbors
     4 = max # of special neighbors
  special bonds CPU = 0.000 seconds
  read_data CPU = 0.005 seconds
Setting atom values ...
  10 settings made for mass
10 atoms in group all
Reading oxdna potential (fene) file oxdna2.real with DATE: 2024-04-26
Finding 1-2 1-3 1-4 neighbors ...
  special bond factors lj:    0        1        1       
  special bond factors coul:  0        1        1       
     2 = max # of 1-2 neighbors
     4 = max # of special neighbors
  special bonds CPU = 0.000 seconds
Reading oxdna potential (excv) file oxdna2.real with DATE: 2024-04-26
Reading oxdna potential (stk) file oxdna2.real with DATE: 2024-04-26
Reading oxdna potential (hbond) file oxdna2.real with DATE: 2024-04-26
Reading oxdna potential (hbond) file oxdna2.real with DATE: 2024-04-26
Reading oxdna potential (hbond) file oxdna2.real with DATE: 2024-04-26
Reading oxdna potential (xstk) file oxdna2.real with DATE: 2024-04-26
Reading oxdna potential (coaxstk) file oxdna2.real with DATE: 2024-04-26
Reading oxdna potential (dh) file oxdna2.real with DATE: 2024-04-26
Generated 0 of 6 mixed pair_coeff terms from geometric mixing rule
Neighbor list info ...
  update: every = 1 steps, delay = 0 steps, check = yes
  max neighbors/atom: 2000, page size: 100000
  master list distance cutoff = 36.640032
  ghost atom cutoff = 36.640032
  binsize = 18.320016, bins = 19 19 19
  5 neighbor lists, perpetual/occasional/extra = 5 0 0
  (1) pair oxdna2/excv, perpetual
      attributes: half, newton on
      pair build: half/bin/newton
      stencil: half/bin/3d
      bin: standard
  (2) pair oxdna2/hbond, perpetual, copy from (1)
      attributes: half, newton on
      pair build: copy
      stencil: none
      bin: none
  (3) pair oxdna2/xstk, perpetual, copy from (1)
      attributes: half, newton on
      pair build: copy
      stencil: none
      bin: none
  (4) pair oxdna2/coaxstk, perpetual, copy from (1)
      attributes: half, newton on
      pair build: copy
      stencil: none
      bin: none
  (5) pair oxdna2/dh, perpetual, copy from (1)
      attributes: half, newton on
      pair build: copy
      stencil: none
      bin: none
Setting up Verlet run ...
  Unit style    : real
  Current step  : 0
  Time step     : 0.01706
WARNING: Communication cutoff adjusted to 36.64003240988628 (src/comm.cpp:739)
0  ekin = 6.60687273927977 |  erot = 16.7817849122513 | epot = -73.9029330618618 | etot = -50.5142754103307
Per MPI rank memory allocation (min/avg/max) = 7.467 | 7.467 | 7.467 Mbytes
   Step          Temp          E_pair         E_mol          TotEng         Press          Volume    
         0   246.27432     -80.289462      6.3865285     -67.29606      -0.044626926    39304000     
1000  ekin = 6.41540831684953 |  erot = 17.3249788985168 | epot = -74.2546626270295 | etot = -50.5142754116631
2000  ekin = 6.27991122577832 |  erot = 17.8454504610745 | epot = -74.6396371002362 | etot = -50.5142754133834
3000  ekin = 6.20398291945338 |  erot = 18.314076603922 | epot = -75.0323349385582 | etot = -50.5142754151829
4000  ekin = 6.1863619976757 |  erot = 18.7040547099771 | epot = -75.4046921244017 | etot = -50.5142754167489
5000  ekin = 6.2221573215847 |  erot = 18.9942188143058 | epot = -75.7306515537703 | etot = -50.5142754178798
6000  ekin = 6.30420734178878 |  erot = 19.1708709879921 | epot = -75.9893537482964 | etot = -50.5142754185155
7000  ekin = 6.42413491039012 |  erot = 19.2280244216481 | epot = -76.1664347507277 | etot = -50.5142754186894
8000  ekin = 6.57305019042843 |  erot = 19.1666743693588 | epot = -76.2539999782607 | etot = -50.5142754184734
9000  ekin = 6.74208660925334 |  erot = 18.9937209190127 | epot = -76.2500829461571 | etot = -50.514275417891
10000  ekin = 6.92290866428275 |  erot = 18.721233888504 | epot = -76.1584179697748 | etot = -50.514275416988
   10000   443.20455     -80.663303      3.1534956     -65.61983      -0.0074359672   39304000     
Loop time of 11.0539 on 1 procs for 1000000 steps with 10 atoms

Performance: 133.346 ns/day, 0.180 hours/ns, 90466.136 timesteps/s, 904.661 katom-step/s
99.7% CPU use with 1 MPI tasks x 1 OpenMP threads

MPI task timing breakdown:
Section |  min time  |  avg time  |  max time  |%varavg| %total
---------------------------------------------------------------
Pair    | 8.8106     | 8.8106     | 8.8106     |   0.0 | 79.71
Bond    | 0.45112    | 0.45112    | 0.45112    |   0.0 |  4.08
Neigh   | 0.005589   | 0.005589   | 0.005589   |   0.0 |  0.05
Comm    | 0.24664    | 0.24664    | 0.24664    |   0.0 |  2.23
Output  | 0.12442    | 0.12442    | 0.12442    |   0.0 |  1.13
Modify  | 1.1263     | 1.1263     | 1.1263     |   0.0 | 10.19
Other   |            | 0.2892     |            |       |  2.62

Nlocal:             10 ave          10 max          10 min
Histogram: 1 0 0 0 0 0 0 0 0 0
Nghost:              0 ave           0 max           0 min
Histogram: 1 0 0 0 0 0 0 0 0 0
Neighs:             37 ave          37 max          37 min
Histogram: 1 0 0 0 0 0 0 0 0 0

Total # of neighbors = 37
Ave neighs/atom = 3.7
Ave special neighs/atom = 1.6
Neighbor list builds = 1000
Dangerous builds = 0
System init for write_data ...
Generated 0 of 6 mixed pair_coeff terms from geometric mixing rule
Total wall time: 0:00:11
