LAMMPS (11 Feb 2026 - Development - patch_10Dec2025-1372-ged4f75871d-modified)
# LAMMPS input file in real units via oxdna lj2real.py, date 2024-05-19
variable number equal 1
variable ofreq  equal 1000
variable efreq  equal 1000
variable T      equal 300.0
variable rhos   equal 0.2

units real

dimension 3

newton on

boundary  p p p

atom_style hybrid bond ellipsoid oxdna
WARNING: Atom style hybrid defines both, per-type and per-atom masses; both must be set, but only per-atom masses will be used (../atom_vec_hybrid.cpp:132)
atom_modify sort 0 8.518

# Pair interactions require lists of neighbours to be calculated
neighbor 17.036 bin
neigh_modify every 1 delay 0 check yes

read_data data.duplex1
Reading data file ...
  orthogonal box = (-170 -170 -170) to (170 170 170)
  1 by 2 by 2 MPI processor grid
  reading atoms ...
  10 atoms
  reading velocities ...
  10 velocities
  scanning bonds ...
  1 = max bonds/atom
  10 ellipsoids
  orthogonal box = (-170 -170 -170) to (170 170 170)
  1 by 2 by 2 MPI processor grid
  reading bonds ...
  8 bonds
Finding 1-2 1-3 1-4 neighbors ...
  special bond factors lj:    0        0        0       
  special bond factors coul:  0        0        0       
     2 = max # of 1-2 neighbors
     2 = max # of 1-3 neighbors
     2 = max # of 1-4 neighbors
     4 = max # of special neighbors
  special bonds CPU = 0.000 seconds
  read_data CPU = 0.001 seconds

set atom * mass 315.75
Setting atom values ...
  10 settings made for mass

group all type 1 4
10 atoms in group all

# oxDNA2 bond interactions - FENE backbone
bond_style oxdna2/fene
bond_coeff * oxdna2_real.cgdna
Reading oxdna potential (fene) file oxdna2_real.cgdna with DATE: 2026-03-04
special_bonds lj 0 1 1
Finding 1-2 1-3 1-4 neighbors ...
  special bond factors lj:    0        1        1       
  special bond factors coul:  0        0        0       
     2 = max # of 1-2 neighbors
     2 = max # of 1-3 neighbors
     2 = max # of 1-4 neighbors
     4 = max # of special neighbors
  special bonds CPU = 0.000 seconds

# oxDNA2 pair interactions
pair_style hybrid/overlay oxdna2/excv oxdna2/stk oxdna2/hbond oxdna2/xstk oxdna2/coaxstk oxdna2/dh
pair_coeff * * oxdna2/excv    oxdna2_real.cgdna
Reading oxdna potential (excv) file oxdna2_real.cgdna with DATE: 2026-03-04
pair_coeff * * oxdna2/stk     seqdep 300.0 oxdna2_real.cgdna
Reading oxdna potential (stk) file oxdna2_real.cgdna with DATE: 2026-03-04
pair_coeff * * oxdna2/hbond   seqdep oxdna2_real.cgdna
Reading oxdna potential (hbond) file oxdna2_real.cgdna with DATE: 2026-03-04
pair_coeff 1 4 oxdna2/hbond   seqdep oxdna2_real.cgdna
Reading oxdna potential (hbond) file oxdna2_real.cgdna with DATE: 2026-03-04
pair_coeff 2 3 oxdna2/hbond   seqdep oxdna2_real.cgdna
Reading oxdna potential (hbond) file oxdna2_real.cgdna with DATE: 2026-03-04
pair_coeff * * oxdna2/xstk    oxdna2_real.cgdna
Reading oxdna potential (xstk) file oxdna2_real.cgdna with DATE: 2026-03-04
pair_coeff * * oxdna2/coaxstk oxdna2_real.cgdna
Reading oxdna potential (coaxstk) file oxdna2_real.cgdna with DATE: 2026-03-04
pair_coeff * * oxdna2/dh      300.0 0.5 oxdna2_real.cgdna
Reading oxdna potential (dh) file oxdna2_real.cgdna with DATE: 2026-03-04


# NVE ensemble
fix 1 all nve/asphere
#fix 2 all langevin ${T} ${T} 4265.0 457145 angmom 10

timestep 0.017055

#comm_style tiled
fix 3 all balance 1000 1.03 shift xyz 10 1.03
comm_modify cutoff 32.4

compute quat all property/atom quatw quati quatj quatk

compute erot all erotate/asphere
compute ekin all ke
compute epot all pe
variable erot equal c_erot
variable ekin equal c_ekin
variable epot equal c_epot
variable etot equal c_erot+c_ekin+c_epot
fix 5 all print ${efreq} "$(step)  ekin = ${ekin} |  erot = ${erot} | epot = ${epot} | etot = ${etot}" screen yes
fix 5 all print 1000 "$(step)  ekin = ${ekin} |  erot = ${erot} | epot = ${epot} | etot = ${etot}" screen yes

dump out all custom ${ofreq} out.${number}.lammpstrj id mol type x y z ix iy iz vx vy vz c_quat[1] c_quat[2] c_quat[3] c_quat[4] angmomx angmomy angmomz
dump out all custom 1000 out.${number}.lammpstrj id mol type x y z ix iy iz vx vy vz c_quat[1] c_quat[2] c_quat[3] c_quat[4] angmomx angmomy angmomz
dump out all custom 1000 out.1.lammpstrj id mol type x y z ix iy iz vx vy vz c_quat[1] c_quat[2] c_quat[3] c_quat[4] angmomx angmomy angmomz
dump_modify out sort id
dump_modify out format line "%d %d %d  %22.15le %22.15le %22.15le  %d %d %d  %22.15le %22.15le %22.15le  %22.15le %22.15le %22.15le %22.15le  %22.15le %22.15le %22.15le"

run 10000
Generated 0 of 6 mixed pair_coeff terms from geometric mixing rule
Neighbor list info ...
  update: every = 1 steps, delay = 0 steps, check = yes
  max neighbors/atom: 2000, page size: 100000
  master list distance cutoff = 36.640032
  ghost atom cutoff = 36.640032
  binsize = 18.320016, bins = 19 19 19
  5 neighbor lists, perpetual/occasional/extra = 5 0 0
  (1) pair oxdna2/excv, perpetual
      attributes: half, newton on
      pair build: half/bin/newton
      stencil: half/bin/3d
      bin: standard
  (2) pair oxdna2/hbond, perpetual, copy from (1)
      attributes: half, newton on
      pair build: copy
      stencil: none
      bin: none
  (3) pair oxdna2/xstk, perpetual, copy from (1)
      attributes: half, newton on
      pair build: copy
      stencil: none
      bin: none
  (4) pair oxdna2/coaxstk, perpetual, copy from (1)
      attributes: half, newton on
      pair build: copy
      stencil: none
      bin: none
  (5) pair oxdna2/dh, perpetual, copy from (1)
      attributes: half, newton on
      pair build: copy
      stencil: none
      bin: none
WARNING: Communication cutoff adjusted to 36.640032409886274 (../comm.cpp:703)
0  ekin = 6.60866429763474 |  erot = 16.7863306740876 | epot = -74.2482293315702 | etot = -50.8532343598479
Per MPI rank memory allocation (min/avg/max) = 8.701 | 8.702 | 8.703 Mbytes
   Step          Temp          E_pair         E_mol          TotEng         Press          Volume    
         0   246.3411      -80.634676      6.3864468     -67.639565     -0.042165398    39304000     
1000  ekin = 6.41326701710417 |  erot = 17.364761842069 | epot = -74.6312632205613 | etot = -50.8532343613882
2000  ekin = 6.27716261178261 |  erot = 17.922440628518 | epot = -75.0528376036848 | etot = -50.8532343633842
3000  ekin = 6.20293749377772 |  erot = 18.4272707809688 | epot = -75.4834426402106 | etot = -50.8532343654641
4000  ekin = 6.18798315214884 |  erot = 18.8495754226955 | epot = -75.8907929421246 | etot = -50.8532343672804
5000  ekin = 6.22607455424424 |  erot = 19.1656099175076 | epot = -76.2449188403756 | etot = -50.8532343686238
6000  ekin = 6.30893644810604 |  erot = 19.3593766969626 | epot = -76.5215475144985 | etot = -50.8532343694298
7000  ekin = 6.42739971239852 |  erot = 19.4229380932136 | epot = -76.7035721753179 | etot = -50.8532343697058
8000  ekin = 6.57219168117382 |  erot = 19.3560261145292 | epot = -76.7814521651751 | etot = -50.8532343694721
9000  ekin = 6.7345783589425 |  erot = 19.1655249961495 | epot = -76.7533377238134 | etot = -50.8532343687214
10000  ekin = 6.90693442637161 |  erot = 18.8651602267744 | epot = -76.6253290206599 | etot = -50.8532343675138
     10000   257.45926     -78.733261      2.1079322     -69.718395     -0.017944208    39304000     
Loop time of 0.0621457 on 4 procs for 10000 steps with 10 atoms

Performance: 237.112 ns/day, 0.101 hours/ns, 160912.049 timesteps/s, 1.609 Matom-step/s
99.8% CPU use with 4 MPI tasks x no OpenMP threads

MPI task timing breakdown:
Section |  min time  |  avg time  |  max time  |%varavg| %total
---------------------------------------------------------------
Pair    | 0.010486   | 0.016455   | 0.029508   |   5.9 | 26.48
Bond    | 0.000483   | 0.0010407  | 0.00166    |   1.5 |  1.67
Neigh   | 2.6e-05    | 2.675e-05  | 2.7e-05    |   0.0 |  0.04
Comm    | 0.012572   | 0.027698   | 0.034237   |   5.3 | 44.57
Output  | 0.000254   | 0.0002625  | 0.000273   |   0.0 |  0.42
Modify  | 0.011312   | 0.011701   | 0.012068   |   0.3 | 18.83
Other   |            | 0.004962   |            |       |  7.98

Nlocal:            2.5 ave           3 max           2 min
Histogram: 2 0 0 0 0 0 0 0 0 2
Nghost:            7.5 ave           8 max           7 min
Histogram: 2 0 0 0 0 0 0 0 0 2
Neighs:          11.25 ave          24 max           6 min
Histogram: 2 1 0 0 0 0 0 0 0 1

Total # of neighbors = 45
Ave neighs/atom = 4.5
Ave special neighs/atom = 3.6
Neighbor list builds = 10
Dangerous builds = 0

write_data last_config.${number}.* nocoeff
write_data last_config.1.* nocoeff
System init for write_data ...
Generated 0 of 6 mixed pair_coeff terms from geometric mixing rule
#write_restart last_config.${number}.*
Total wall time: 0:00:00
