LAMMPS (11 Feb 2026 - Development - patch_10Dec2025-1372-ged4f75871d)
variable number	equal 2
variable ofreq	equal 100
variable efreq	equal 100
variable T      equal 0.1
variable rhos   equal 0.2

units lj

dimension 3

newton on

boundary  p p p

atom_style hybrid bond ellipsoid oxdna
WARNING: Atom style hybrid defines both, per-type and per-atom masses; both must be set, but only per-atom masses will be used (../atom_vec_hybrid.cpp:132)
atom_modify sort 0 1.0

# Pair interactions require lists of neighbours to be calculated
neighbor 2.0 bin
neigh_modify every 1 delay 0 check yes

read_data data.duplex2
Reading data file ...
  orthogonal box = (-20 -20 -20) to (20 20 20)
  1 by 1 by 1 MPI processor grid
  reading atoms ...
  16 atoms
  reading velocities ...
  16 velocities
  scanning bonds ...
  1 = max bonds/atom
  16 ellipsoids
  orthogonal box = (-20 -20 -20) to (20 20 20)
  1 by 1 by 1 MPI processor grid
  reading bonds ...
  13 bonds
Finding 1-2 1-3 1-4 neighbors ...
  special bond factors lj:    0        0        0       
  special bond factors coul:  0        0        0       
     2 = max # of 1-2 neighbors
     2 = max # of 1-3 neighbors
     4 = max # of 1-4 neighbors
     6 = max # of special neighbors
  special bonds CPU = 0.000 seconds
  read_data CPU = 0.008 seconds

set atom * mass 3.1575
Setting atom values ...
  16 settings made for mass

group all type 1 4
16 atoms in group all

# oxDNA2 bond interactions - FENE backbone
bond_style oxdna2/fene
bond_coeff * 2.0 0.25 0.7564
special_bonds lj 0 1 1
Finding 1-2 1-3 1-4 neighbors ...
  special bond factors lj:    0        1        1       
  special bond factors coul:  0        0        0       
     2 = max # of 1-2 neighbors
     2 = max # of 1-3 neighbors
     4 = max # of 1-4 neighbors
     6 = max # of special neighbors
  special bonds CPU = 0.000 seconds

# oxDNA2 pair interactions
pair_style hybrid/overlay oxdna2/excv oxdna2/stk oxdna2/hbond oxdna2/xstk oxdna2/coaxstk oxdna2/dh
pair_coeff * * oxdna2/excv    2.0 0.7 0.675 2.0 0.515 0.5 2.0 0.33 0.32
pair_coeff * * oxdna2/stk     seqav ${T} 1.3523 2.6717 6.0 0.4 0.9 0.32 0.75 1.3 0 0.8 0.9 0 0.95 0.9 0 0.95 2.0 0.65 2.0 0.65
pair_coeff * * oxdna2/stk     seqav 0.1 1.3523 2.6717 6.0 0.4 0.9 0.32 0.75 1.3 0 0.8 0.9 0 0.95 0.9 0 0.95 2.0 0.65 2.0 0.65
pair_coeff * * oxdna2/hbond   seqav 0.0 8.0 0.4 0.75 0.34 0.7 1.5 0 0.7 1.5 0 0.7 1.5 0 0.7 0.46 3.141592653589793 0.7 4.0 1.5707963267948966 0.45 4.0 1.5707963267948966 0.45
pair_coeff 1 4 oxdna2/hbond   seqav 1.0678 8.0 0.4 0.75 0.34 0.7 1.5 0 0.7 1.5 0 0.7 1.5 0 0.7 0.46 3.141592653589793 0.7 4.0 1.5707963267948966 0.45 4.0 1.5707963267948966 0.45
pair_coeff 2 3 oxdna2/hbond   seqav 1.0678 8.0 0.4 0.75 0.34 0.7 1.5 0 0.7 1.5 0 0.7 1.5 0 0.7 0.46 3.141592653589793 0.7 4.0 1.5707963267948966 0.45 4.0 1.5707963267948966 0.45
pair_coeff * * oxdna2/xstk    47.5 0.575 0.675 0.495 0.655 2.25 0.791592653589793 0.58 1.7 1.0 0.68 1.7 1.0 0.68 1.5 0 0.65 1.7 0.875 0.68 1.7 0.875 0.68
pair_coeff * * oxdna2/coaxstk 58.5 0.4 0.6 0.22 0.58 2.0 2.891592653589793 0.65 1.3 0 0.8 0.9 0 0.95 0.9 0 0.95 40.0 3.116592653589793
pair_coeff * * oxdna2/dh      ${T} ${rhos} 0.815
pair_coeff * * oxdna2/dh      0.1 ${rhos} 0.815
pair_coeff * * oxdna2/dh      0.1 0.2 0.815

# NVE ensemble
fix 1 all nve/asphere
fix 2 all langevin ${T} ${T} 2.5 457145 angmom 10
fix 2 all langevin 0.1 ${T} 2.5 457145 angmom 10
fix 2 all langevin 0.1 0.1 2.5 457145 angmom 10

timestep 1e-5

#comm_style tiled
fix 3 all balance 1000 1.03 shift xyz 10 1.03
comm_modify cutoff 3.8

compute quat all property/atom quatw quati quatj quatk

compute erot all erotate/asphere
compute ekin all ke
compute epot all pe
variable erot equal c_erot
variable ekin equal c_ekin
variable epot equal c_epot
variable etot equal c_erot+c_ekin+c_epot
fix 5 all print ${efreq} "$(step)  ekin = ${ekin} |  erot = ${erot} | epot = ${epot} | etot = ${etot}" screen yes
fix 5 all print 100 "$(step)  ekin = ${ekin} |  erot = ${erot} | epot = ${epot} | etot = ${etot}" screen yes

dump out all custom ${ofreq} out.${number}.lammpstrj id mol type x y z ix iy iz vx vy vz c_quat[1] c_quat[2] c_quat[3] c_quat[4] angmomx angmomy angmomz
dump out all custom 100 out.${number}.lammpstrj id mol type x y z ix iy iz vx vy vz c_quat[1] c_quat[2] c_quat[3] c_quat[4] angmomx angmomy angmomz
dump out all custom 100 out.2.lammpstrj id mol type x y z ix iy iz vx vy vz c_quat[1] c_quat[2] c_quat[3] c_quat[4] angmomx angmomy angmomz
dump_modify out sort id
dump_modify out format line "%d %d %d  %22.15le %22.15le %22.15le  %d %d %d  %22.15le %22.15le %22.15le  %22.15le %22.15le %22.15le %22.15le  %22.15le %22.15le %22.15le"

run 1000
Generated 0 of 6 mixed pair_coeff terms from geometric mixing rule
Neighbor list info ...
  update: every = 1 steps, delay = 0 steps, check = yes
  max neighbors/atom: 2000, page size: 100000
  master list distance cutoff = 5.6389877
  ghost atom cutoff = 5.6389877
  binsize = 2.8194939, bins = 15 15 15
  5 neighbor lists, perpetual/occasional/extra = 5 0 0
  (1) pair oxdna2/excv, perpetual
      attributes: half, newton on
      pair build: half/bin/newton
      stencil: half/bin/3d
      bin: standard
  (2) pair oxdna2/hbond, perpetual, copy from (1)
      attributes: half, newton on
      pair build: copy
      stencil: none
      bin: none
  (3) pair oxdna2/xstk, perpetual, copy from (1)
      attributes: half, newton on
      pair build: copy
      stencil: none
      bin: none
  (4) pair oxdna2/coaxstk, perpetual, copy from (1)
      attributes: half, newton on
      pair build: copy
      stencil: none
      bin: none
  (5) pair oxdna2/dh, perpetual, copy from (1)
      attributes: half, newton on
      pair build: copy
      stencil: none
      bin: none
WARNING: Communication cutoff adjusted to 5.638987723814633 (../comm.cpp:703)
0  ekin = 2.70475393009871 |  erot = 2.80172072918779 | epot = -21.0482852787267 | etot = -15.5418106194402
Per MPI rank memory allocation (min/avg/max) = 8.82 | 8.82 | 8.82 Mbytes
   Step          Temp          E_pair         E_mol          TotEng         Press          Volume    
         0   0.12021129    -1.3610384      0.045520537   -1.1464707      5.9660461e-05  64000        
100  ekin = 2.71389137695872 |  erot = 2.70346575306789 | epot = -21.0328736854893 | etot = -15.6155165554627
200  ekin = 2.7079340846213 |  erot = 2.69558714430078 | epot = -21.0164931041854 | etot = -15.6129718752633
300  ekin = 2.68212582003857 |  erot = 2.55323517546317 | epot = -20.9994297596449 | etot = -15.7640687641431
400  ekin = 2.6885757038291 |  erot = 2.49320805856798 | epot = -20.9830676682987 | etot = -15.8012839059016
500  ekin = 2.69687329087341 |  erot = 2.53999458206551 | epot = -20.9669147768142 | etot = -15.7300469038753
600  ekin = 2.73534508402174 |  erot = 2.48503748313811 | epot = -20.9508535817612 | etot = -15.7304710146013
700  ekin = 2.70246779614725 |  erot = 2.45751600406961 | epot = -20.9359929519094 | etot = -15.7760091516925
800  ekin = 2.69064221587763 |  erot = 2.53005432599822 | epot = -20.9217838011517 | etot = -15.7010872592759
900  ekin = 2.68686654872459 |  erot = 2.55561332800179 | epot = -20.9073825582479 | etot = -15.6649026815215
1000  ekin = 2.70391570439002 |  erot = 2.60396138194761 | epot = -20.892587006041 | etot = -15.5847099197034
      1000   0.12017403    -1.3494033      0.043616651   -1.136792       5.0708394e-05  64000        
Loop time of 0.017484 on 1 procs for 1000 steps with 16 atoms

Performance: 49416.609 tau/day, 57195.150 timesteps/s, 915.122 katom-step/s
99.4% CPU use with 1 MPI tasks x no OpenMP threads

MPI task timing breakdown:
Section |  min time  |  avg time  |  max time  |%varavg| %total
---------------------------------------------------------------
Pair    | 0.013071   | 0.013071   | 0.013071   |   0.0 | 74.76
Bond    | 0.000467   | 0.000467   | 0.000467   |   0.0 |  2.67
Neigh   | 6e-06      | 6e-06      | 6e-06      |   0.0 |  0.03
Comm    | 0.000105   | 0.000105   | 0.000105   |   0.0 |  0.60
Output  | 0.000895   | 0.000895   | 0.000895   |   0.0 |  5.12
Modify  | 0.002827   | 0.002827   | 0.002827   |   0.0 | 16.17
Other   |            | 0.000113   |            |       |  0.65

Nlocal:             16 ave          16 max          16 min
Histogram: 1 0 0 0 0 0 0 0 0 0
Nghost:              0 ave           0 max           0 min
Histogram: 1 0 0 0 0 0 0 0 0 0
Neighs:            120 ave         120 max         120 min
Histogram: 1 0 0 0 0 0 0 0 0 0

Total # of neighbors = 120
Ave neighs/atom = 7.5
Ave special neighs/atom = 3.75
Neighbor list builds = 1
Dangerous builds = 0

write_data last_config.${number}.* nocoeff
write_data last_config.2.* nocoeff
System init for write_data ...
Generated 0 of 6 mixed pair_coeff terms from geometric mixing rule
#write_restart last_config.${number}.*
Total wall time: 0:00:00
