LAMMPS data file via write_data, version 30 Mar 2026, timestep = 2186, units = lj

48 atoms
3 atom types
48 ellipsoids

0 6.839903786706787 xlo xhi
0 6.839903786706787 ylo yhi
0 5.12992784003009 zlo zhi

Atoms # ellipsoid

2 2 1 0.477464829275686 2.5199956656969364 0.7160309380061771 1.1815908233268237 0 0 0
18 1 1 2.291831180523292 1.243057267567008 1.7677995085538847 1.034902966599053 0 0 0
26 1 1 2.291831180523292 0.9482622403338065 0.8593913308816131 1.5129695114964703 0 0 0
25 1 1 2.291831180523292 3.412151723134616 2.4883031657972428 0.9301695485730177 0 0 0
10 1 1 2.291831180523292 2.7563017387793027 3.1064340437538616 1.6074588257098144 0 0 0
6 1 1 2.291831180523292 2.5625876115611113 2.082030889173184 1.5430095407714433 0 0 0
41 1 1 2.291831180523292 2.0781112128324812 2.499372846354227 0.6359682035006294 0 0 0
5 2 1 0.477464829275686 0.6884756497614385 3.181221389551218 0.5716768783986793 0 0 0
38 1 1 2.291831180523292 6.683639524052914 0.8274561724746927 0.2269593786047816 -1 0 1
22 1 1 2.291831180523292 3.6173099670391893 1.4188306920399305 1.300319708076679 0 0 0
17 3 1 0.9549296585513719 5.657287002744345 0.11689740894680405 2.413188199264522 -1 0 0
11 3 1 0.9549296585513719 4.456995682727155 1.9944519819210031 0.5221514660944461 0 0 0
1 3 1 0.9549296585513719 5.344945562300415 1.8289373929299626 1.5654083159293182 -1 0 0
46 2 1 0.477464829275686 6.341135919566648 2.7245684778531825 2.127945069926344 -1 0 0
14 2 1 0.477464829275686 0.2279846360252448 6.371758412870948 0.9778850445321147 0 0 0
31 1 1 2.291831180523292 2.8837307940002805 5.809705110903585 1.004394598263257 0 0 0
29 2 1 0.477464829275686 2.197775632321888 4.056178091610775 0.09765971302714055 0 0 0
15 3 1 0.9549296585513719 2.816743606216433 6.311262772759332 2.0540133200072854 0 0 0
32 3 1 0.9549296585513719 0.4327568230882125 4.353199929360587 2.2872329645377785 1 0 0
27 2 1 0.477464829275686 2.9622085747869793 4.40925407760718 1.5310012460816809 0 0 0
35 2 1 0.477464829275686 2.049079330897469 6.308967675038706 0.10574631825042 0 -1 1
47 2 1 0.477464829275686 1.2324533162881397 5.555528411833666 2.327595767664971 0 0 0
4 3 1 0.9549296585513719 4.9334660652410705 6.759414961576869 0.9288458917430177 0 -1 0
12 3 1 0.9549296585513719 3.8789360314510386 3.454758202115764 2.222724852427217 0 0 -1
23 3 1 0.9549296585513719 5.219101871870107 3.9174341366037893 1.7590290346956567 0 0 0
28 3 1 0.9549296585513719 5.990654066682871 5.181685392734197 1.0651416871106134 0 0 0
48 2 1 0.477464829275686 4.438368865414842 5.616553882891394 2.519093438284848 0 0 0
19 3 1 0.9549296585513719 0.6172751486298914 2.3926111786791697 2.886055912883008 0 0 0
3 1 1 2.291831180523292 3.494584312284459 1.575706572399092 5.11069110785147 0 0 -1
42 2 1 0.477464829275686 2.94726038920089 1.3520646671250593 2.9248083050637153 0 0 0
39 1 1 2.291831180523292 0.8495096734296813 2.0734621889413076 4.014788243270896 0 0 0
34 2 1 0.477464829275686 1.2086893652034432 0.7593658867917147 3.710006479656399 0 0 0
7 1 1 2.291831180523292 2.411843482472458 0.8172137340026541 4.398563692121971 0 0 -1
13 3 1 0.9549296585513719 1.7316574308755261 2.2869233380624325 4.399553557674273 0 0 -1
45 3 1 0.9549296585513719 2.6380614855370608 3.433164892558041 3.360103368828519 0 0 0
24 2 1 0.477464829275686 4.254013909967684 0.690400327176126 2.728720174652572 0 0 0
21 3 1 0.9549296585513719 6.621368709304619 1.4358549894778376 3.470147768410235 -1 0 0
8 1 1 2.291831180523292 3.5941926320566124 0.6416347497944971 4.1716925107982865 0 0 -1
40 3 1 0.9549296585513719 3.4831017118051903 2.7261122585327087 4.011338928825096 0 0 0
9 3 1 0.9549296585513719 1.856037563002693 5.10720516410852 3.699322574727838 0 0 -1
36 2 1 0.477464829275686 3.0839690372721384 5.142534045676146 3.9210933522216505 0 -1 0
30 1 1 2.291831180523292 3.882628437530563 4.044748788669188 4.963231117677487 0 0 -1
20 3 1 0.9549296585513719 4.017172381683845 5.782107449487341 4.315649744488206 0 -1 -1
33 2 1 0.477464829275686 4.832861990408488 0.006503425325798062 4.683160135372716 -1 0 0
37 1 1 2.291831180523292 5.463505796207596 6.3488971318377665 3.4975539290051905 -1 -1 0
43 3 1 0.9549296585513719 5.690144481407471 3.6112397066202786 4.721758544943905 0 0 0
44 2 1 0.477464829275686 6.314019470867689 5.430276864947852 4.195483043973401 0 0 0
16 1 1 2.291831180523292 6.260493799664498 6.2845237134873715 2.739222989262533 0 0 -1

Velocities

2 -1.7270115142367872 -0.6919332855804338 -0.3008774307253869 0.5526556938246583 0.8830266935834359 0.674782206724789
18 -0.3979683837641482 1.078379711452766 2.2221058091542027 0 0 0
26 -0.9227812224463086 -0.27679794261014223 0.3029945606106629 0 0 0
25 2.0957854327244467 -2.1002826342395418 1.792220925888139 0 0 0
10 3.551120995366765 -0.03346757283282934 1.5680338205460977 0 0 0
6 -0.1947280419597442 -0.6257484203348741 -0.6872525160295241 0 0 0
41 0.5045609959555271 -0.1599118393014755 0.7991230777678825 0 0 0
5 -1.196893082604092 -1.565683725735395 -0.3521757339139823 0.24278457889406055 -1.4104775102141254 1.2378412806536985
38 -1.5289905544643807 0.8429399398202502 1.4989111300561395 0 0 0
22 -0.6982778756387557 -0.5077609672196963 -0.6898370220808604 0 0 0
17 1.9525676713890863 0.032075391081921346 0.37317120401596915 -0.40775347534024114 -0.01862286371969909 -0.8763387908533476
11 -0.7009627104380444 -0.8763307711828509 0.6879957657858445 -3.1407902800830434 -0.15662490438416934 0.245963365167273
1 -2.8134540666909644 0.13878455398558373 2.3749137699816685 0.029983029268007052 -0.7112398670362783 0.6833710105642365
46 -2.374385217233607 -1.2092209194116168 0.38016309509826435 -0.07276336078143028 -0.4385266263667287 -0.5700001033228649
14 1.3661463129161175 0.2586468130431539 1.8413019188856619 1.6864381551071734 -0.17734658728203978 -0.0626454719370805
31 2.263184224980271 0.21258711607970743 0.9722988266407674 0 0 0
29 2.405916765186944 -1.5305221082491904 -2.995009494634542 0.42561986307481253 -0.243057059186146 -0.07075000532763036
15 -1.9741795228897068 1.2364614938223417 2.4066973811626524 1.0778536367804192 1.7236426784619199 0.2070597733778493
32 0.7690812704751726 -0.600856390537769 2.4119941200157924 1.7727401732753088 -1.7910550382374213 1.0497451871453123
27 -0.8568042782292874 1.7681399733448517 -1.3234354058004778 0.6040212744376948 -0.3332290440848392 -0.3522355525664785
35 -1.2314620414614228 -0.7213323969109746 -0.2792461817589988 0.7172572486369274 0.9479463972712491 -0.09877920297725104
47 0.12056030613777324 -1.0664400567687193 -0.5766669786933257 1.184786552757376 -0.5392053542417127 0.8702950395389687
4 0.8539550892934662 2.3151661688943603 -0.5011883794995005 -0.38763880831283787 0.26020179447428327 -1.3023958808737095
12 -0.5343566291561752 -0.7809775067818301 -0.1673177623799532 -1.524101501579153 0.26633755434391254 -0.54653088478181
23 2.9977211463249382 2.0237892703111284 -1.5517157528834205 0.5073126779773227 -0.8823764320027593 -0.39268687299192234
28 1.556729991690234 0.375785854160284 0.5011978311740101 0.7816039208722183 0.5173358177030893 -0.19348893888350827
48 -1.30349079488015 -2.4722986468910366 -0.45393066182416913 -0.5566589917890185 -0.4533820317760591 1.3182384202199944
19 -3.244350085319665 2.2766678515728405 -0.03778369254133911 2.4631145348822603 1.0229835426782077 -0.8375193764378044
3 1.8900746770492778 -3.7068007346987013 1.2866793365424642 0 0 0
42 -1.7237649834529492 1.1440517590578692 -0.7960214641276012 -0.12043633779216095 0.40912380810847665 -0.4544360491839573
39 -1.5260002467865696 2.6307998945303646 -1.656845273165211 0 0 0
34 1.5977433104004448 -0.6178750330969663 0.7076103385245393 -0.5111139908781756 -0.6298356260151438 -0.7519537784964078
7 -2.2396051279466933 -1.6414014731748021 -0.3568081840245448 0 0 0
13 -0.34104180761305897 1.004019659443022 0.6702991094553818 -1.906854070044207 -0.6485536993953248 0.1308744783656439
45 -1.8722830776349406 1.0194412936335455 -0.5364744304050744 0.3313368701723346 -0.9067792624304717 1.1416047928217607
24 1.4018514845972716 -1.2346100619327538 0.033761469225723484 -0.7956321082924801 0.3246210050891549 -1.201353147387197
21 -1.1830807741513316 0.932543834445007 -0.5227557616367882 0.8083396479573421 -1.2763791272427434 0.12505018754659458
8 2.0595168081960193 -0.8177972571117885 1.0859789477005395 0 0 0
40 -0.16840803331225085 -0.2495696507303457 -1.5455186176214641 -0.6772297024212994 -1.9217644987158844 -1.1382950055835752
9 1.3502401627601006 0.09407720261107193 -2.80607818078736 -1.8774763597162658 0.6459215431131538 -2.0455025383074483
36 -0.08178194462422435 -1.0466096782643155 -1.1610403639889824 0.17944346850009435 0.9052965022079359 0.07598045788735924
30 -1.323515608428876 -0.6967490591008858 -0.9132837159473977 0 0 0
20 0.6154961509952541 0.7655275307090347 -0.4995407655644702 -0.7543060604654651 0.48586089635784807 0.12994391504935085
33 -1.634085127125111 0.7125876765100356 -0.7957242628824638 -0.7399129517209367 0.05890940381193245 0.14446001591795316
37 -1.9394260093504698 -0.5876062361428249 -2.539133074770002 0 0 0
43 0.6463330206137564 -0.36642098964456915 -0.13383493589864492 0.5083858101922409 0.7575719643036166 0.9886726281093469
44 3.7459649901680514 0.3949174331776926 -0.4568581341184381 0.20424546083433187 0.34246476486562843 0.28976585449848064
16 2.2624533697947657 1.2795383615666729 -0.6501383679108662 0 0 0

Ellipsoids

2 1 2 2 -0.31506076909483594 -0.2863468766461093 -0.5985741028718319 0.6785655615956133
18 1 1 1 -0.4642009442155396 -0.07468971651670174 -0.721649869902129 0.5080948680180666
26 1 1 1 0.1937349177396402 0.5052542641874352 -0.4383253407135538 0.717673885450192
25 1 1 1 -0.45752578087389717 -0.025587874000035864 0.709982939085795 -0.5347332482153934
10 1 1 1 0.8904219924024311 0.07480685854712965 -0.24773545564397084 0.3744058671779446
6 1 1 1 0.5146157948674754 0.834913309532057 0.18285480245701488 0.06822367959550492
41 1 1 1 -0.013754150087065454 0.6600863197510863 -0.4953285189856043 -0.5645764183105568
5 1 2 2 0.2800070794246106 -0.28315824440141524 0.1365835569332187 -0.9070624984393736
38 1 1 1 -0.6696330903545628 -0.4372085010290292 0.4272816477084923 0.4217471333176594
22 1 1 1 -0.06828932902019633 0.8927558980559921 -0.4416495352322783 -0.05717658661832858
17 3 1 1 0.011838859294327722 0.9741492582960388 0.1329298604292442 -0.18227099653578546
11 3 1 1 -0.4549254507549597 0.4728107923570242 -0.022827608273262873 -0.7543021206298192
1 3 1 1 0.849548217026901 0.20438879178372563 0.08865058666584731 -0.47815700582905135
46 1 2 2 0.4345910868213268 0.1988000346252411 0.7673729708773093 -0.427490183577814
14 1 2 2 0.18119065557044808 -0.6139565876570467 0.5443037238502982 0.5421814373520776
31 1 1 1 -0.6200425500752722 0.6683982583125233 0.1386619688838741 -0.38673487399791956
29 1 2 2 0.5155044101896548 0.3892273475371676 -0.48620508626699116 0.5885251813578625
15 3 1 1 -0.033930491700959665 0.32088773265314086 0.886603558722521 0.33138182573312464
32 3 1 1 0.3675675079267981 -0.5101712775608759 -0.5127965125104506 -0.5845161515522955
27 1 2 2 0.44241350899514725 0.7066870828087436 0.5513558160146044 -0.029502850654449107
35 1 2 2 -0.21763867492415195 -0.7046432232707762 0.6439982610293796 -0.20341478527129098
47 1 2 2 0.17587511940252412 0.5016201931706308 -0.05618082698641169 -0.8451561032482283
4 3 1 1 0.9400727341289077 -0.10649749981154773 0.18533360116733785 -0.26565577983480043
12 3 1 1 -0.10816697238659344 -0.630011878694011 -0.4875675529542203 -0.5946955692582504
23 3 1 1 0.40411443005220904 0.7758178789519995 0.03146821470520007 0.48353686269535473
28 3 1 1 0.287491259946215 -0.5438944977899375 0.048200827542090825 0.7868953113042594
48 1 2 2 -0.5265723291225517 -0.1857587481340275 -0.48790815675125393 0.6709403105118398
19 3 1 1 -0.3123622881713465 -0.661620676206067 -0.36227538965819267 -0.5774464683353704
3 1 1 1 -0.4688358796251741 -0.8367663998713137 0.2292518584765988 -0.16570605120971132
42 1 2 2 -0.313370589443129 -0.8176438089821662 0.4824829041325315 -0.02162689355961979
39 1 1 1 0.18832865131348026 0.1336641237054669 0.9625183189235057 0.1422135959223439
34 1 2 2 0.7411311476199505 0.4544569914640763 0.060057822910409946 0.4904962006419802
7 1 1 1 -0.7723397524845703 0.29162121876029146 0.5624348072075798 -0.045994120735235074
13 3 1 1 0.4764531592584641 0.5124825251542373 -0.6626031033201142 0.26704152470115805
45 3 1 1 -0.6073442404333137 -0.12267471270212968 -0.5584278008646014 0.5515816165332709
24 1 2 2 0.7412616781801207 -0.6207304087216056 0.13994588863857216 -0.2136352789289727
21 3 1 1 -0.09152077593076324 0.7358310664521719 0.3638562010011876 0.5637244488310523
8 1 1 1 -0.41897449761529565 -0.3244411963344278 -0.8289225253640475 0.17912489333754247
40 3 1 1 0.9076898253112985 -0.08240427697043765 0.3608650263129978 0.1976996432658474
9 3 1 1 -0.8886920864494244 -0.131813836773744 -0.33087006105483563 0.2887498755233031
36 1 2 2 0.3268756035474982 -0.9006307409386064 -0.23490642988896038 -0.16381568141865616
30 1 1 1 -0.8411269447920916 -0.44953579343094646 -0.03768128928437873 -0.29833396321404315
20 3 1 1 -0.058351024516584374 0.798080981396476 0.39935494668453236 -0.4474120378685593
33 1 2 2 0.6502411165675357 -0.5879287517907356 -0.4661083906288626 0.11945392973093835
37 1 1 1 0.2972104462204092 -0.46319832070833555 0.6985823271376841 -0.4572701592727665
43 3 1 1 -0.4575792780588269 -0.10445719680023569 0.11132342994438464 -0.8759663191431606
44 1 2 2 -0.543394252055385 -0.3336905786376893 -0.7663793200005719 0.07769184279622801
16 1 1 1 0.4153431280317659 0.39516000285212194 0.578438241679277 0.5802998007113958
