LAMMPS data file in real units via oxdna lj2real.py, date 2026-03-03

10 atoms
4 atom types
8 bonds
1 bond types
10 ellipsoids

-170 170 xlo xhi
-170 170 ylo yhi
-170 170 zlo zhi

Masses

1 100.0
2 100.0
3 100.0
4 100.0

Atoms # hybrid

1 1 -0.9600635673395586 -6.697372578532395 11.214288461530149 1 1 0.016226975055263524 0 0 0
2 2 -1.371418484333729 -8.644426415489871 15.09830243650489 1 1 0.016226975055263524 0 0 0
3 3 -0.6216529396853785 -10.27130427566052 18.871948109873205 1 1 0.016226975055263524 0 0 0
4 4 1.779062937600471 -10.807909849707325 23.24831121047697 1 1 0.016226975055263524 0 0 0
5 1 4.239477379859167 -10.116984578731293 26.59145222824391 1 1 0.016226975055263524 0 0 0
6 4 -1.9327071764636017 -1.6150385295751968 26.477847842079502 2 1 0.016226975055263524 0 0 0
7 1 -0.2983880618807194 -0.9579116659377174 23.010952595199885 2 1 0.016226975055263524 0 0 0
8 2 2.1503419307040095 -0.31467499729662424 19.779605638337472 2 1 0.016226975055263524 0 0 0
9 3 5.687077844288683 -1.6585607691903788 17.32600745817322 2 1 0.016226975055263524 0 0 0
10 4 7.960942109870774 -4.424349635235229 15.853866095654556 2 1 0.016226975055263524 0 0 0

Velocities

1 0.0036712667578456537 -0.0010658295333562367 0.00019826208470027963 2.1907765272127815 -2.458233654626834 1.771590567881688
2 0.00229174206140975 0.0007730893442733149 0.002297302264234438 -0.40550992670079267 -0.12256900284865263 0.7114804417531456
3 -0.0004999121261481228 -0.0006772534572101591 -0.0006777822946981398 2.1799885869201243 3.741405305688462 -1.7280652999425063
4 -0.00015186350269409725 -4.5546767328679126e-05 0.0014456976179010263 -0.9443144351571557 1.9770868062434144 -0.30487711511637616
5 0.00010891218442999031 -0.0017701553705677631 0.002217688825810595 -0.08456325855422685 0.0359651540236653 -0.7051007511391507
6 0.00029373982399264007 -0.0011968788088350464 0.0004709699330649791 -0.7164675845629473 -1.1698850425730265 2.0944019431905967
7 -2.13699641353974e-05 5.579222589256289e-05 -0.0005337150698588964 1.5034067635930202 -2.4596763581697796 0.728627307440437
8 -0.0028361453182511507 -0.0002814447968859124 -0.0006161817458417439 -0.2677158380870832 -2.3603250575373225 -1.6798374529968116
9 0.0003742328995492577 0.0018912594822241182 0.000556552077729633 -1.5128665517221822 -1.4691630021021733 -2.2453437171689243
10 -0.0024381873690143556 -0.0005507284775864183 0.0009721739812118981 0.4399229360941979 1.620758393321942 1.0900863494164144

Bonds

1 1 1 2
2 1 2 3
3 1 3 4
4 1 4 5
5 1 6 7
6 1 7 8
7 1 8 9
8 1 9 10

Ellipsoids

1 26.93628110931426 26.93628110931426 26.93628110931426 0.9824438652148015 -0.023183015026523597 -0.18238525095550406 0.031657854475291056
2 26.93628110931426 26.93628110931426 26.93628110931426 0.9303156820429525 0.02962373336578937 -0.07607439157272995 0.3575581814380256
3 26.93628110931426 26.93628110931426 26.93628110931426 0.7912072782182723 -0.043679545103099016 -0.05996218100443608 0.6070318583758278
4 26.93628110931426 26.93628110931426 26.93628110931426 0.6531869542452552 -0.03659000162837596 0.004181596561545229 0.7563005281201641
5 26.93628110931426 26.93628110931426 26.93628110931426 0.3249781771672557 0.06207197535108856 0.03689277251937633 0.9429608568635791
6 26.93628110931426 26.93628110931426 26.93628110931426 0.08029535222204207 0.8726095530830543 -0.46831094470633033 -0.11309325067392484
7 26.93628110931426 26.93628110931426 26.93628110931426 -0.1303991484205687 0.7764383491760718 -0.6081660772848121 0.10135864274905797
8 26.93628110931426 26.93628110931426 26.93628110931426 -0.14971034142173664 0.5769499085020084 -0.7973230447846137 0.09482393688465168
9 26.93628110931426 26.93628110931426 26.93628110931426 0.21130729744233523 -0.37917864508185584 0.8946270178621702 -0.10590221939385809
10 26.93628110931426 26.93628110931426 26.93628110931426 0.34278400171414436 0.15185237372800306 0.9252984668160771 0.05712032974191834
