LAMMPS (2 Apr 2025)
# LAMMPS input file in real units via oxdna lj2real.py, date 2024-05-19
variable number	equal 3
variable ofreq	equal 1000
variable efreq	equal 1000
variable T      equal 300.0
variable rhos   equal 0.2

units real

dimension 3

newton on

boundary  p p p

atom_style hybrid bond ellipsoid oxdna
WARNING: Atom style hybrid defines both, per-type and per-atom masses; both must be set, but only per-atom masses will be used (../atom_vec_hybrid.cpp:132)
atom_modify sort 0 8.518

# Pair interactions require lists of neighbours to be calculated
neighbor 17.036 bin
neigh_modify every 1 delay 0 check yes

read_data data.duplex3
Reading data file ...
  orthogonal box = (-170 -170 -170) to (170 170 170)
  1 by 1 by 1 MPI processor grid
  reading atoms ...
  10 atoms
  reading velocities ...
  10 velocities
  scanning bonds ...
  1 = max bonds/atom
  10 ellipsoids
  orthogonal box = (-170 -170 -170) to (170 170 170)
  1 by 1 by 1 MPI processor grid
  reading bonds ...
  8 bonds
Finding 1-2 1-3 1-4 neighbors ...
  special bond factors lj:    0        0        0       
  special bond factors coul:  0        0        0       
     2 = max # of 1-2 neighbors
     2 = max # of 1-3 neighbors
     2 = max # of 1-4 neighbors
     4 = max # of special neighbors
  special bonds CPU = 0.000 seconds
  read_data CPU = 0.001 seconds

set atom * mass 100.0278
Setting atom values ...
  10 settings made for mass

group all type 1 4
10 atoms in group all

# oxDNA2 bond interactions - FENE backbone
bond_style oxdna2/fene
bond_coeff * 11.92337812042065 2.1295 6.4430152
special_bonds lj 0 1 1
Finding 1-2 1-3 1-4 neighbors ...
  special bond factors lj:    0        1        1       
  special bond factors coul:  0        0        0       
     2 = max # of 1-2 neighbors
     2 = max # of 1-3 neighbors
     2 = max # of 1-4 neighbors
     4 = max # of special neighbors
  special bonds CPU = 0.000 seconds

# oxDNA2 pair interactions
pair_style hybrid/overlay oxdna2/excv oxdna2/stk oxdna2/hbond oxdna2/xstk oxdna2/coaxstk oxdna2/dh
pair_coeff * * oxdna2/excv 11.92337812042065 5.9626 5.74965 11.92337812042065 4.38677 4.259 11.92337812042065 2.81094 2.72576
pair_coeff * * oxdna2/stk seqdep ${T} 8.06199211612242 0.005309213 0.70439070204273 3.4072 7.6662 2.72576 6.3885 1.3 0.0 0.8 0.9 0.0 0.95 0.9 0.0 0.95 2.0 0.65 2.0 0.65
pair_coeff * * oxdna2/stk seqdep 300 8.06199211612242 0.005309213 0.70439070204273 3.4072 7.6662 2.72576 6.3885 1.3 0.0 0.8 0.9 0.0 0.95 0.9 0.0 0.95 2.0 0.65 2.0 0.65
pair_coeff * * oxdna2/hbond seqdep 0.0 0.93918760272364 3.4072 6.3885 2.89612 5.9626 1.5 0.0 0.7 1.5 0 0.7 1.5 0 0.7 0.46 3.141592654 0.7 4.0 1.570796327 0.45 4.0 1.570796327 0.45
pair_coeff 1 4 oxdna2/hbond seqdep 6.36589157849259 0.93918760272364 3.4072 6.3885 2.89612 5.9626 1.5 0 0.7 1.5 0.0 0.7 1.5 0 0.7 0.46 3.141592654 0.7 4.0 1.570796327 0.45 4.0 1.570796327 0.45
pair_coeff 2 3 oxdna2/hbond seqdep 6.36589157849259 0.93918760272364 3.4072 6.3885 2.89612 5.9626 1.5 0 0.7 1.5 0.0 0.7 1.5 0 0.7 0.46 3.141592654 0.7 4.0 1.570796327 0.45 4.0 1.570796327 0.45
pair_coeff * * oxdna2/xstk 3.9029021145006 4.89785 5.74965 4.21641 5.57929 2.25 0.791592654 0.58 1.7 1.0 0.68 1.7 1.0 0.68 1.5 0 0.65 1.7 0.875 0.68 1.7 0.875 0.68
pair_coeff * * oxdna2/coaxstk 4.80673207785863 3.4072 5.1108 1.87396 4.94044 2.0 2.891592653589793 0.65 1.3 0 0.8 0.9 0 0.95 0.9 0 0.95 40.0 3.116592653589793
pair_coeff * * oxdna2/dh ${T} ${rhos} 0.815
pair_coeff * * oxdna2/dh 300 ${rhos} 0.815
pair_coeff * * oxdna2/dh 300 0.2 0.815

# NVE ensemble
fix 1 all nve/asphere
#fix 2 all langevin ${T} ${T} 4265.0 457145 angmom 10

timestep 0.01706

#comm_style tiled
fix 3 all balance 1000 1.03 shift xyz 10 1.03
comm_modify cutoff 32.4

compute quat all property/atom quatw quati quatj quatk

compute erot all erotate/asphere
compute ekin all ke
compute epot all pe
variable erot equal c_erot
variable ekin equal c_ekin
variable epot equal c_epot
variable etot equal c_erot+c_ekin+c_epot
fix 5 all print ${efreq} "$(step)  ekin = ${ekin} |  erot = ${erot} | epot = ${epot} | etot = ${etot}" screen yes
fix 5 all print 1000 "$(step)  ekin = ${ekin} |  erot = ${erot} | epot = ${epot} | etot = ${etot}" screen yes

dump out all custom ${ofreq} out.${number}.lammpstrj id mol type x y z ix iy iz vx vy vz c_quat[1] c_quat[2] c_quat[3] c_quat[4] angmomx angmomy angmomz
dump out all custom 1000 out.${number}.lammpstrj id mol type x y z ix iy iz vx vy vz c_quat[1] c_quat[2] c_quat[3] c_quat[4] angmomx angmomy angmomz
dump out all custom 1000 out.3.lammpstrj id mol type x y z ix iy iz vx vy vz c_quat[1] c_quat[2] c_quat[3] c_quat[4] angmomx angmomy angmomz
dump_modify out sort id
dump_modify out format line "%d %d %d  %22.15le %22.15le %22.15le  %d %d %d  %22.15le %22.15le %22.15le  %22.15le %22.15le %22.15le %22.15le  %22.15le %22.15le %22.15le"

run 1000000
Generated 0 of 6 mixed pair_coeff terms from geometric mixing rule
Neighbor list info ...
  update: every = 1 steps, delay = 0 steps, check = yes
  max neighbors/atom: 2000, page size: 100000
  master list distance cutoff = 48.032697
  ghost atom cutoff = 48.032697
  binsize = 24.016348, bins = 15 15 15
  5 neighbor lists, perpetual/occasional/extra = 5 0 0
  (1) pair oxdna2/excv, perpetual
      attributes: half, newton on
      pair build: half/bin/newton
      stencil: half/bin/3d
      bin: standard
  (2) pair oxdna2/hbond, perpetual, copy from (1)
      attributes: half, newton on
      pair build: copy
      stencil: none
      bin: none
  (3) pair oxdna2/xstk, perpetual, copy from (1)
      attributes: half, newton on
      pair build: copy
      stencil: none
      bin: none
  (4) pair oxdna2/coaxstk, perpetual, copy from (1)
      attributes: half, newton on
      pair build: copy
      stencil: none
      bin: none
  (5) pair oxdna2/dh, perpetual, copy from (1)
      attributes: half, newton on
      pair build: copy
      stencil: none
      bin: none
WARNING: Communication cutoff adjusted to 48.03269686950012 (../comm.cpp:753)
0  ekin = 7.03429942525144 |  erot = 12.9873344362494 | epot = -68.5183064451292 | etot = -48.4966725836283
Per MPI rank memory allocation (min/avg/max) = 7.507 | 7.507 | 7.507 Mbytes
   Step          Temp          E_pair         E_mol          TotEng         Press          Volume    
         0   262.20685     -73.084271      4.565965      -61.484007     -0.0051810598   39304000     
1000  ekin = 6.47818551117441 |  erot = 13.3026700489858 | epot = -68.2775281400722 | etot = -48.496672579912
2000  ekin = 6.03525112997236 |  erot = 13.6564943363021 | epot = -68.1884180433538 | etot = -48.4966725770794
3000  ekin = 5.75105017872919 |  erot = 14.0429985067123 | epot = -68.2907212623787 | etot = -48.4966725769372
4000  ekin = 5.63745048823595 |  erot = 14.4525304497378 | epot = -68.5866535170602 | etot = -48.4966725790865
5000  ekin = 5.67539108471591 |  erot = 14.8714892268938 | epot = -69.0435528945028 | etot = -48.496672582893
6000  ekin = 5.82255924081694 |  erot = 15.2845343223522 | epot = -69.6037661502115 | etot = -48.4966725870424
7000  ekin = 6.0294913144517 |  erot = 15.6780321266846 | epot = -70.2041960313098 | etot = -48.4966725901734
8000  ekin = 6.25690013504883 |  erot = 16.0432406183866 | epot = -70.7968133448985 | etot = -48.496672591463
9000  ekin = 6.48760823849338 |  erot = 16.3777166841148 | epot = -71.3619975139183 | etot = -48.4966725913101
10000  ekin = 6.72254611001798 |  erot = 16.6826306715322 | epot = -71.9018493718518 | etot = -48.4966725903016
11000  ekin = 6.97475226170425 |  erot = 16.9603738277431 | epot = -72.431798678795 | etot = -48.4966725893477
12000  ekin = 7.25960713990575 |  erot = 17.2117069445191 | epot = -72.9679866735641 | etot = -48.4966725891392
13000  ekin = 7.58616001551483 |  erot = 17.4338437184062 | epot = -73.5166763239127 | etot = -48.4966725899917
14000  ekin = 7.95221337497282 |  erot = 17.6199690400549 | epot = -74.0688550069351 | etot = -48.4966725919074
15000  ekin = 8.34290179280009 |  erot = 17.7599308757287 | epot = -74.599505263303 | etot = -48.4966725947742
16000  ekin = 8.73088347798013 |  erot = 17.8412839163861 | epot = -75.068839993131 | etot = -48.4966725987647
17000  ekin = 9.06872001929364 |  erot = 17.8482053032192 | epot = -75.4135979249304 | etot = -48.4966726024176
18000  ekin = 9.30863890671777 |  erot = 17.76865847793 | epot = -75.5739699900193 | etot = -48.4966726053715
19000  ekin = 9.41124785647455 |  erot = 17.5960512017219 | epot = -75.5039716652989 | etot = -48.4966726071024
20000  ekin = 9.34910582886781 |  erot = 17.3292516593871 | epot = -75.1750300954668 | etot = -48.4966726072119
21000  ekin = 9.11266896890948 |  erot = 16.973125286953 | epot = -74.5824668613647 | etot = -48.4966726055023
22000  ekin = 8.71397032422784 |  erot = 16.5385032889632 | epot = -73.7491462151201 | etot = -48.496672601929
23000  ekin = 8.18690962778264 |  erot = 16.0421750929964 | epot = -72.7257573178972 | etot = -48.4966725971182
24000  ekin = 7.58361736117527 |  erot = 15.5032978232029 | epot = -71.5835877759394 | etot = -48.4966725915613
25000  ekin = 6.967409916749 |  erot = 14.9419969554431 | epot = -70.4060794581741 | etot = -48.496672585982
26000  ekin = 6.40397973480518 |  erot = 14.3775943404743 | epot = -69.2782466563098 | etot = -48.4966725810303
27000  ekin = 5.95300264518448 |  erot = 13.8269533988879 | epot = -68.2766286212089 | etot = -48.4966725771366
28000  ekin = 5.66210674320036 |  erot = 13.3035488276537 | epot = -67.4623281453084 | etot = -48.4966725744543
29000  ekin = 5.5641629285326 |  erot = 12.8173046943284 | epot = -66.8781401957627 | etot = -48.4966725729018
30000  ekin = 5.67757091398675 |  erot = 12.3750254271169 | epot = -66.5492689133848 | etot = -48.4966725722811
31000  ekin = 6.00823180422866 |  erot = 11.9813634428799 | epot = -66.486267819515 | etot = -48.4966725724065
32000  ekin = 6.5516646899788 |  erot = 11.6395080908376 | epot = -66.687845354015 | etot = -48.4966725731987
33000  ekin = 7.29417473532494 |  erot = 11.3509752571399 | epot = -67.1418225671849 | etot = -48.4966725747201
34000  ekin = 8.21244588218678 |  erot = 11.1161143134269 | epot = -67.8252327728434 | etot = -48.4966725772297
35000  ekin = 9.27066798182008 |  erot = 10.9338272642601 | epot = -68.7011678273405 | etot = -48.4966725812603
36000  ekin = 10.4137127998441 |  erot = 10.8011032352063 | epot = -69.7114886227786 | etot = -48.4966725877282
37000  ekin = 11.5574113355616 |  erot = 10.7118774334059 | epot = -70.7659613658543 | etot = -48.4966725968868
38000  ekin = 12.5862131120555 |  erot = 10.6570487006395 | epot = -71.7399344196433 | etot = -48.4966726069483
39000  ekin = 13.3756277697451 |  erot = 10.6266661696595 | epot = -72.4989665531963 | etot = -48.4966726137917
40000  ekin = 13.8400144974728 |  erot = 10.614944104086 | epot = -72.9516312154844 | etot = -48.4966726139255
41000  ekin = 13.9716515751527 |  erot = 10.6251303228018 | epot = -73.0934545058134 | etot = -48.4966726078589
42000  ekin = 13.8349966624043 |  erot = 10.6693591526024 | epot = -73.0010284144752 | etot = -48.4966725994686
43000  ekin = 13.4863179745795 |  erot = 10.7627501491632 | epot = -72.745740917227 | etot = -48.4966727934842
44000  ekin = 12.8657064139247 |  erot = 11.0065042177549 | epot = -72.368883325112 | etot = -48.4966726934324
45000  ekin = 12.4513480708373 |  erot = 11.2623687140009 | epot = -72.2103894466184 | etot = -48.4966726617802
46000  ekin = 11.8973058918009 |  erot = 11.5369637549565 | epot = -71.9309423094148 | etot = -48.4966726626574
47000  ekin = 11.3048691716604 |  erot = 11.8534105202767 | epot = -71.6549523562344 | etot = -48.4966726642973
48000  ekin = 10.6681247163121 |  erot = 12.1927455857895 | epot = -71.3575429678098 | etot = -48.4966726657082
49000  ekin = 9.98781452095542 |  erot = 12.5337626830789 | epot = -71.018249870202 | etot = -48.4966726661677
50000  ekin = 9.27805060546806 |  erot = 12.8568502175182 | epot = -70.6315734882948 | etot = -48.4966726653086
51000  ekin = 8.5681630505193 |  erot = 13.1473275670357 | epot = -70.212163280745 | etot = -48.49667266319
52000  ekin = 7.89968625326362 |  erot = 13.3972664509226 | epot = -69.7936253644649 | etot = -48.4966726602787
53000  ekin = 7.31936805861647 |  erot = 13.6052883011233 | epot = -69.4213290170349 | etot = -48.4966726572951
54000  ekin = 6.87026435043436 |  erot = 13.7746656104184 | epot = -69.1416026158054 | etot = -48.4966726549526
55000  ekin = 6.58358833130195 |  erot = 13.9106626376469 | epot = -68.9909236227067 | etot = -48.4966726537578
56000  ekin = 6.4734077692435 |  erot = 14.0180895137403 | epot = -68.988169936907 | etot = -48.4966726539232
57000  ekin = 6.53490189398209 |  erot = 14.0996443244825 | epot = -69.1312188738688 | etot = -48.4966726554041
58000  ekin = 6.74582948881802 |  erot = 14.1551416501588 | epot = -69.397643796883 | etot = -48.4966726579061
59000  ekin = 7.07026744299444 |  erot = 14.1814435236745 | epot = -69.7483836278282 | etot = -48.4966726611592
60000  ekin = 7.46321119956071 |  erot = 14.1729605115921 | epot = -70.1328443758886 | etot = -48.4966726647358
61000  ekin = 7.87615620947606 |  erot = 14.1225980724389 | epot = -70.4954269501747 | etot = -48.4966726682598
62000  ekin = 8.26246819545926 |  erot = 14.0231891838092 | epot = -70.7823300503886 | etot = -48.4966726711201
63000  ekin = 8.58419585421913 |  erot = 13.8690469944664 | epot = -70.9499155215198 | etot = -48.4966726728342
64000  ekin = 8.81822702695924 |  erot = 13.6575496044132 | epot = -70.9724493044946 | etot = -48.4966726731221
65000  ekin = 8.95905321200021 |  erot = 13.3902699399848 | epot = -70.8459958240499 | etot = -48.4966726720649
66000  ekin = 9.01708021240158 |  erot = 13.0731504494324 | epot = -70.5869033319403 | etot = -48.4966726701063
67000  ekin = 9.01264024181454 |  erot = 12.7157756705988 | epot = -70.2250885803058 | etot = -48.4966726678925
68000  ekin = 8.96786592552584 |  erot = 12.3300108275771 | epot = -69.7945494191639 | etot = -48.4966726660609
69000  ekin = 8.8980923022883 |  erot = 11.9282539830635 | epot = -69.3230189502571 | etot = -48.4966726649053
70000  ekin = 8.80855518919759 |  erot = 11.5224663142649 | epot = -68.8276941678883 | etot = -48.4966726644258
71000  ekin = 8.69498380037422 |  erot = 11.1237231983046 | epot = -68.3153796630104 | etot = -48.4966726643317
72000  ekin = 8.54784464636751 |  erot = 10.7423794346706 | epot = -67.7868967452237 | etot = -48.4966726641856
73000  ekin = 8.35855300081085 |  erot = 10.3885820115988 | epot = -67.243807675979 | etot = -48.4966726635694
74000  ekin = 8.12576446604057 |  erot = 10.0727225309059 | epot = -66.6951596591064 | etot = -48.4966726621599
75000  ekin = 7.85890437579225 |  erot = 9.80548509842851 | epot = -66.1610621343399 | etot = -48.4966726601192
76000  ekin = 7.57852165402648 |  erot = 9.59727081536857 | epot = -65.6724651268114 | etot = -48.4966726574164
77000  ekin = 7.31582042129708 |  erot = 9.45739858079256 | epot = -65.2698916571111 | etot = -48.4966726550215
78000  ekin = 7.10323229833951 |  erot = 9.39173074336896 | epot = -64.9916356947871 | etot = -48.4966726530786
79000  ekin = 6.96937218054387 |  erot = 9.40218099613639 | epot = -64.8682258285416 | etot = -48.4966726518613
80000  ekin = 6.93674566763365 |  erot = 9.48623430706738 | epot = -64.9196526261978 | etot = -48.4966726514968
81000  ekin = 7.01925680666656 |  erot = 9.63726327568315 | epot = -65.1531927343337 | etot = -48.496672651984
82000  ekin = 7.22081712459664 |  erot = 9.84564997752238 | epot = -65.5631397554102 | etot = -48.4966726532912
83000  ekin = 7.53417765386272 |  erot = 10.100359901966 | epot = -66.1312102111955 | etot = -48.4966726553668
84000  ekin = 7.94029058934417 |  erot = 10.3905229584642 | epot = -66.8274862058417 | etot = -48.4966726580333
85000  ekin = 8.40988507522521 |  erot = 10.7066512628594 | epot = -67.6132089989648 | etot = -48.4966726608802
86000  ekin = 8.90877838664888 |  erot = 11.0413122902594 | epot = -68.4467633402391 | etot = -48.4966726633308
87000  ekin = 9.40446727184984 |  erot = 11.3892123423165 | epot = -69.2903522795791 | etot = -48.4966726654127
88000  ekin = 9.86641386533783 |  erot = 11.746469826262 | epot = -70.1095563579273 | etot = -48.4966726663275
89000  ekin = 10.2794449749745 |  erot = 12.109335183393 | epot = -70.8854528250655 | etot = -48.4966726666981
90000  ekin = 10.6448818632993 |  erot = 12.4712192860775 | epot = -71.612773815518 | etot = -48.4966726661413
91000  ekin = 10.9592378236987 |  erot = 12.8213713070338 | epot = -72.2772817984384 | etot = -48.4966726677059
92000  ekin = 11.1805024607924 |  erot = 13.1782323505891 | epot = -72.8554074847656 | etot = -48.4966726733842
93000  ekin = 11.348671755885 |  erot = 13.4886662723589 | epot = -73.3340106985082 | etot = -48.4966726702644
94000  ekin = 11.4194570018429 |  erot = 13.7677249757344 | epot = -73.6838546479557 | etot = -48.4966726703784
95000  ekin = 11.3899765892397 |  erot = 14.0119097397861 | epot = -73.8985589999752 | etot = -48.4966726709494
96000  ekin = 11.2605951113223 |  erot = 14.2148286413581 | epot = -73.9720964225422 | etot = -48.4966726698618
97000  ekin = 11.0445904714286 |  erot = 14.3764700204594 | epot = -73.9177331597961 | etot = -48.4966726679082
98000  ekin = 10.7660933774822 |  erot = 14.4993108341521 | epot = -73.7620768770617 | etot = -48.4966726654274
99000  ekin = 10.4555155361526 |  erot = 14.5876138558182 | epot = -73.5398020548146 | etot = -48.4966726628438
100000  ekin = 10.0974774598936 |  erot = 14.6249949423902 | epot = -73.2191455720041 | etot = -48.4966731697202
101000  ekin = 10.0415631096176 |  erot = 14.096187206653 | epot = -72.6344231724559 | etot = -48.4966728561853
102000  ekin = 10.2892855713182 |  erot = 14.0121875104984 | epot = -72.7981457142983 | etot = -48.4966726324816
103000  ekin = 10.0309263370143 |  erot = 14.0335683972795 | epot = -72.5611673660212 | etot = -48.4966726317274
104000  ekin = 9.7919469900506 |  erot = 14.0507619049247 | epot = -72.3393815271554 | etot = -48.49667263218
105000  ekin = 9.5692864094901 |  erot = 14.0644676494024 | epot = -72.1304266917131 | etot = -48.4966726328206
106000  ekin = 9.35843270941587 |  erot = 14.0738948863189 | epot = -71.9290002289418 | etot = -48.496672633207
107000  ekin = 9.15960205394165 |  erot = 14.078157009604 | epot = -71.7344316966939 | etot = -48.4966726331483
108000  ekin = 8.9805859886197 |  erot = 14.0757573495365 | epot = -71.5530159707948 | etot = -48.4966726326386
109000  ekin = 8.83500010163777 |  erot = 14.0641942059676 | epot = -71.3958669399391 | etot = -48.4966726323337
110000  ekin = 8.73407156167072 |  erot = 14.0396159238026 | epot = -71.2703601184357 | etot = -48.4966726329623
111000  ekin = 8.67544983167173 |  erot = 13.9967358275319 | epot = -71.1688582943788 | etot = -48.4966726351751
112000  ekin = 8.63500440761948 |  erot = 13.9293053313385 | epot = -71.0609823775577 | etot = -48.4966726385997
113000  ekin = 8.57042592578241 |  erot = 13.8317248404401 | epot = -70.8988234080961 | etot = -48.4966726418736
114000  ekin = 8.4398909691348 |  erot = 13.7008372464512 | epot = -70.6374008585737 | etot = -48.4966726429878
115000  ekin = 8.22527688481052 |  erot = 13.5374589941346 | epot = -70.2594085170052 | etot = -48.4966726380601
116000  ekin = 7.96055882645521 |  erot = 13.3455331436989 | epot = -69.8027646054358 | etot = -48.4966726352817
117000  ekin = 7.68480617458231 |  erot = 13.1328848481098 | epot = -69.3143636549134 | etot = -48.4966726322213
118000  ekin = 7.4297853770989 |  erot = 12.9094282247773 | epot = -68.8358862320082 | etot = -48.4966726301319
119000  ekin = 7.21373639393072 |  erot = 12.6851208042349 | epot = -68.3955298273809 | etot = -48.4966726292153
120000  ekin = 7.0380329363654 |  erot = 12.4697797263388 | epot = -68.0044852916934 | etot = -48.4966726289891
121000  ekin = 6.89367092643932 |  erot = 12.2728949512536 | epot = -67.6632385066877 | etot = -48.4966726289947
122000  ekin = 6.76879687257034 |  erot = 12.102721469352 | epot = -67.3681909710508 | etot = -48.4966726291285
123000  ekin = 6.65210407178414 |  erot = 11.9648592015088 | epot = -67.1136359029299 | etot = -48.496672629637
124000  ekin = 6.5311526770897 |  erot = 11.8616861164439 | epot = -66.8895114237909 | etot = -48.4966726302573
125000  ekin = 6.39605544212659 |  erot = 11.7907254418527 | epot = -66.683453515518 | etot = -48.4966726315387
126000  ekin = 6.23766494395339 |  erot = 11.7440508510346 | epot = -66.4783884275706 | etot = -48.4966726325827
127000  ekin = 6.04911470795345 |  erot = 11.711163525567 | epot = -66.2569508666265 | etot = -48.496672633106
128000  ekin = 5.83208869215293 |  erot = 11.6822138801442 | epot = -66.0109752050992 | etot = -48.496672632802
129000  ekin = 5.5995553375682 |  erot = 11.6485505375869 | epot = -65.7447785065486 | etot = -48.4966726313935
130000  ekin = 5.37616547346456 |  erot = 11.6055192857376 | epot = -65.4783573884631 | etot = -48.4966726292609
131000  ekin = 5.19621347260244 |  erot = 11.5523382042843 | epot = -65.2452243036212 | etot = -48.4966726267345
132000  ekin = 5.09512855427605 |  erot = 11.4915853273368 | epot = -65.0833865066935 | etot = -48.4966726250807
133000  ekin = 5.09593793196111 |  erot = 11.4254654000423 | epot = -65.0180759559374 | etot = -48.4966726239341
134000  ekin = 5.21315400668901 |  erot = 11.357221628938 | epot = -65.0670482589971 | etot = -48.49667262337
135000  ekin = 5.4527488745825 |  erot = 11.2905481951999 | epot = -65.2399696930865 | etot = -48.4966726233041
136000  ekin = 5.81359277201848 |  erot = 11.2291159416492 | epot = -65.5393813373523 | etot = -48.4966726236846
137000  ekin = 6.28595091476052 |  erot = 11.175221500822 | epot = -65.9578450445983 | etot = -48.4966726290158
138000  ekin = 6.83489595318585 |  erot = 11.1238804126677 | epot = -66.455448996285 | etot = -48.4966726304315
139000  ekin = 7.43298982213769 |  erot = 11.0759557714593 | epot = -67.0056182256045 | etot = -48.4966726320074
140000  ekin = 8.05423567523224 |  erot = 11.0338915539245 | epot = -67.5847998630977 | etot = -48.496672633941
141000  ekin = 8.66814450976578 |  erot = 10.9995435661276 | epot = -68.1643607123608 | etot = -48.4966726364674
142000  ekin = 9.23299211625418 |  erot = 10.973995610168 | epot = -68.7036603674085 | etot = -48.4966726409863
143000  ekin = 9.69542810759814 |  erot = 10.9568256540421 | epot = -69.1489264066357 | etot = -48.4966726449955
144000  ekin = 10.003571273051 |  erot = 10.9455251640255 | epot = -69.4457690858249 | etot = -48.4966726487484
145000  ekin = 10.1140173167581 |  erot = 10.9367967497641 | epot = -69.5474867174216 | etot = -48.4966726508994
146000  ekin = 10.0102551934749 |  erot = 10.92821207194 | epot = -69.4351399151929 | etot = -48.496672649778
147000  ekin = 9.72372844852484 |  erot = 10.9204908015172 | epot = -69.1408918943036 | etot = -48.4966726442615
148000  ekin = 9.34553092121539 |  erot = 10.9194622742218 | epot = -68.7616658304644 | etot = -48.4966726350272
149000  ekin = 9.0130830772157 |  erot = 10.9361646162989 | epot = -68.4459203187367 | etot = -48.4966726252222
150000  ekin = 8.86556491619864 |  erot = 10.9838242848993 | epot = -68.3460618203858 | etot = -48.4966726192878
151000  ekin = 8.98562593113201 |  erot = 11.0721207188512 | epot = -68.5544192701816 | etot = -48.4966726201983
152000  ekin = 9.36317382414712 |  erot = 11.201328304802 | epot = -69.0611747563356 | etot = -48.4966726273866
153000  ekin = 9.90592399926714 |  erot = 11.3597169983859 | epot = -69.7623136349298 | etot = -48.4966726372768
154000  ekin = 10.4876718007885 |  erot = 11.5259908274833 | epot = -70.5103352740108 | etot = -48.496672645739
155000  ekin = 11.0014546611186 |  erot = 11.675585972227 | epot = -71.1737132837622 | etot = -48.4966726504166
156000  ekin = 11.3882148349958 |  erot = 11.7874454844487 | epot = -71.6723329709543 | etot = -48.4966726515099
157000  ekin = 11.6329719121597 |  erot = 11.848129811586 | epot = -71.9777743743946 | etot = -48.4966726506488
158000  ekin = 11.7436997816189 |  erot = 11.8526024825733 | epot = -72.0929749132283 | etot = -48.4966726490361
159000  ekin = 11.7357219121817 |  erot = 11.8034015633382 | epot = -72.0357961222147 | etot = -48.4966726466948
160000  ekin = 11.6305552644525 |  erot = 11.7096700273712 | epot = -71.8368979351554 | etot = -48.4966726433316
161000  ekin = 11.4596686193144 |  erot = 11.5857134121762 | epot = -71.5420546707719 | etot = -48.4966726392813
162000  ekin = 11.2620233891944 |  erot = 11.4483738449264 | epot = -71.2070698695265 | etot = -48.4966726354058
163000  ekin = 11.0755659765666 |  erot = 11.3138001976392 | epot = -70.8860388066506 | etot = -48.4966726324448
164000  ekin = 10.9292960811471 |  erot = 11.1949564931538 | epot = -70.6209252049791 | etot = -48.4966726306782
165000  ekin = 10.8401906864887 |  erot = 11.1006151382433 | epot = -70.4374784546626 | etot = -48.4966726299306
166000  ekin = 10.8146651780998 |  erot = 11.0356758462698 | epot = -70.3470136542489 | etot = -48.4966726298794
167000  ekin = 10.8520567567873 |  erot = 11.0022539306507 | epot = -70.3509833175959 | etot = -48.4966726301578
168000  ekin = 10.948489433628 |  erot = 11.0010183041599 | epot = -70.4461803682601 | etot = -48.4966726304723
169000  ekin = 11.0998937027386 |  erot = 11.0324366339776 | epot = -70.6290029673698 | etot = -48.4966726306536
170000  ekin = 11.3034839733003 |  erot = 11.0977053912586 | epot = -70.8978619952555 | etot = -48.4966726306966
171000  ekin = 11.5572307267871 |  erot = 11.1992212781614 | epot = -71.2531246357274 | etot = -48.496672630779
172000  ekin = 11.8571464638385 |  erot = 11.3405307806885 | epot = -71.6943498757691 | etot = -48.496672631242
173000  ekin = 12.1927097200944 |  erot = 11.5257889190941 | epot = -72.215171271718 | etot = -48.4966726325294
174000  ekin = 12.5417902291402 |  erot = 11.7588401693294 | epot = -72.7973030335607 | etot = -48.4966726350911
175000  ekin = 12.8647095032744 |  erot = 12.0421936377315 | epot = -73.4035757801789 | etot = -48.496672639173
176000  ekin = 13.1024197132869 |  erot = 12.3759769580608 | epot = -73.9750693159971 | etot = -48.4966726446494
177000  ekin = 13.19071809685 |  erot = 12.7566551418166 | epot = -74.444045886954 | etot = -48.4966726482874
178000  ekin = 13.0526492219537 |  erot = 13.1773711164502 | epot = -74.7266929933936 | etot = -48.4966726549898
179000  ekin = 12.2089794588685 |  erot = 13.5830164197241 | epot = -74.2886682061575 | etot = -48.4966723275648
180000  ekin = 11.9004068675181 |  erot = 14.0870661177315 | epot = -74.4841455891981 | etot = -48.4966726039485
181000  ekin = 10.865476890364 |  erot = 14.5861339869475 | epot = -73.9482834733443 | etot = -48.4966725960329
182000  ekin = 9.660282706947 |  erot = 15.1104289206591 | epot = -73.2673842110073 | etot = -48.4966725834011
183000  ekin = 8.48066280387287 |  erot = 15.6673690821401 | epot = -72.6447044561333 | etot = -48.4966725701203
184000  ekin = 7.52630413851753 |  erot = 16.2665624203511 | epot = -72.2895391199387 | etot = -48.4966725610701
185000  ekin = 6.93646433276078 |  erot = 16.9124293952411 | epot = -72.3455662872104 | etot = -48.4966725592085
186000  ekin = 6.754021823562 |  erot = 17.5959531882612 | epot = -72.8466475761048 | etot = -48.4966725642815
187000  ekin = 6.93176584306231 |  erot = 18.2901076459535 | epot = -73.7185460628751 | etot = -48.4966725738593
188000  ekin = 7.3649617593696 |  erot = 18.9517169220473 | epot = -74.8133512665788 | etot = -48.496672585162
189000  ekin = 7.92587452892093 |  erot = 19.5289159490197 | epot = -75.9514630739375 | etot = -48.4966725959969
190000  ekin = 8.48887345555928 |  erot = 19.9711008208227 | epot = -76.9566468811668 | etot = -48.4966726047848
191000  ekin = 8.94279744307571 |  erot = 20.2387056809831 | epot = -77.6781757356976 | etot = -48.4966726116388
192000  ekin = 9.20220030816023 |  erot = 20.3101038067612 | epot = -78.0089767286137 | etot = -48.4966726136923
193000  ekin = 9.22639739330264 |  erot = 20.1841068563603 | epot = -77.9071768610937 | etot = -48.4966726114308
194000  ekin = 9.02106352746244 |  erot = 19.8798400124502 | epot = -77.3975761450882 | etot = -48.4966726051756
195000  ekin = 8.63698690389678 |  erot = 19.4322506720404 | epot = -76.5659101722182 | etot = -48.496672596281
196000  ekin = 8.15745599944539 |  erot = 18.884738125028 | epot = -75.5388667111725 | etot = -48.4966725866991
197000  ekin = 7.67775841891625 |  erot = 18.2815207246701 | epot = -74.4559517216672 | etot = -48.4966725780809
198000  ekin = 7.28589102711623 |  erot = 17.6623826120224 | epot = -73.4449462104542 | etot = -48.4966725713156
199000  ekin = 7.05017610428496 |  erot = 17.060606391973 | epot = -72.6074550629759 | etot = -48.4966725667179
200000  ekin = 7.01285264528764 |  erot = 16.5030180881864 | epot = -72.0125432979105 | etot = -48.4966725644365
201000  ekin = 7.1862830294826 |  erot = 16.0106066265257 | epot = -71.6935622206078 | etot = -48.4966725645995
202000  ekin = 7.55028085659724 |  erot = 15.5985035867486 | epot = -71.6454570106416 | etot = -48.4966725672958
203000  ekin = 8.05261783917836 |  erot = 15.2753610695138 | epot = -71.8246514808027 | etot = -48.4966725721105
204000  ekin = 8.61587119719484 |  erot = 15.0430481939179 | epot = -72.1555919692041 | etot = -48.4966725780914
205000  ekin = 9.15150139881655 |  erot = 14.897262353854 | epot = -72.5454363365269 | etot = -48.4966725838563
206000  ekin = 9.57853091802933 |  erot = 14.8296218061954 | epot = -72.9048253122598 | etot = -48.4966725880351
207000  ekin = 9.84110469117302 |  erot = 14.8306579376107 | epot = -73.1684352185407 | etot = -48.496672589757
208000  ekin = 9.91915380070317 |  erot = 14.8924578832494 | epot = -73.3082842728993 | etot = -48.4966725889467
209000  ekin = 9.82907930165532 |  erot = 15.0096951815667 | epot = -73.3354470695389 | etot = -48.4966725863169
210000  ekin = 9.61485280029836 |  erot = 15.1785174137082 | epot = -73.29004279713 | etot = -48.4966725831235
211000  ekin = 9.33255453637534 |  erot = 15.3937274488305 | epot = -73.2229545659788 | etot = -48.496672580773
212000  ekin = 9.03298062727052 |  erot = 15.645385712316 | epot = -73.175038919945 | etot = -48.4966725803585
213000  ekin = 8.74801774645479 |  erot = 15.9162328155347 | epot = -73.1609231441982 | etot = -48.4966725822087
214000  ekin = 8.48645509186586 |  erot = 16.1810372606217 | epot = -73.164164937916 | etot = -48.4966725854284
215000  ekin = 8.24361394372106 |  erot = 16.4085443498284 | epot = -73.1488308822369 | etot = -48.4966725886874
216000  ekin = 8.01644140639813 |  erot = 16.5671904860376 | epot = -73.0803044821117 | etot = -48.496672589676
217000  ekin = 7.8244385714693 |  erot = 16.6321169295449 | epot = -72.9532280885856 | etot = -48.4966725875714
218000  ekin = 7.71607328584842 |  erot = 16.5899557796677 | epot = -72.802701649449 | etot = -48.4966725839329
219000  ekin = 7.75310717264644 |  erot = 16.4350572743147 | epot = -72.6848370278621 | etot = -48.4966725809009
220000  ekin = 7.98143888037712 |  erot = 16.1675107350303 | epot = -72.6456221958592 | etot = -48.4966725804518
221000  ekin = 8.40773648375206 |  erot = 15.789700820409 | epot = -72.6941098869415 | etot = -48.4966725827805
222000  ekin = 8.99748090378555 |  erot = 15.3051579237955 | epot = -72.7993114139619 | etot = -48.4966725863809
223000  ekin = 9.69291742679448 |  erot = 14.720837241408 | epot = -72.9104272575067 | etot = -48.4966725893042
224000  ekin = 10.4359945859744 |  erot = 14.050586338022 | epot = -72.9832535144547 | etot = -48.4966725904583
225000  ekin = 11.1813440324253 |  erot = 13.318009441381 | epot = -72.9960260640948 | etot = -48.4966725902884
226000  ekin = 11.889917409358 |  erot = 12.5555741904339 | epot = -72.9421641905579 | etot = -48.496672590766
227000  ekin = 12.5083401208463 |  erot = 11.7991557925099 | epot = -72.8041685069172 | etot = -48.496672593561
228000  ekin = 12.9540489023959 |  erot = 11.081371180973 | epot = -72.5320926818128 | etot = -48.4966725984439
229000  ekin = 13.12504827684 |  erot = 10.4265507754513 | epot = -72.0482716553123 | etot = -48.496672603021
230000  ekin = 12.9354776786681 |  erot = 9.84937329189471 | epot = -71.2815235748153 | etot = -48.4966726042525
231000  ekin = 12.357197923859 |  erot = 9.35664487116983 | epot = -70.2105153953902 | etot = -48.4966726003613
232000  ekin = 11.441378635523 |  erot = 8.95013763085119 | epot = -68.8881888585095 | etot = -48.4966725921353
233000  ekin = 10.3068608367532 |  erot = 8.62874527756676 | epot = -67.4322786963282 | etot = -48.4966725820083
234000  ekin = 9.10484994366767 |  erot = 8.38947611811401 | epot = -65.9909986342481 | etot = -48.4966725724664
235000  ekin = 7.97762335600268 |  erot = 8.22796057435055 | epot = -64.7022564960582 | etot = -48.4966725657049
236000  ekin = 7.03041833666883 |  erot = 8.14060898682741 | epot = -63.6676998849113 | etot = -48.496672561415
237000  ekin = 6.33232778593092 |  erot = 8.12400287134786 | epot = -62.9530032163596 | etot = -48.4966725590808
238000  ekin = 5.92140822285016 |  erot = 8.1751307774425 | epot = -62.5932115585228 | etot = -48.4966725582301
239000  ekin = 5.81123122340514 |  erot = 8.29054157425166 | epot = -62.5984453565749 | etot = -48.4966725589181
240000  ekin = 5.99217826069069 |  erot = 8.46489799365368 | epot = -62.9537488157068 | etot = -48.4966725613624
241000  ekin = 6.43109156575345 |  erot = 8.6896136824905 | epot = -63.6173778141239 | etot = -48.4966725658799
242000  ekin = 7.0675640711934 |  erot = 8.95153614482719 | epot = -64.5157727888149 | etot = -48.4966725727944
243000  ekin = 7.8163931936103 |  erot = 9.23207829014552 | epot = -65.5451440641934 | etot = -48.4966725804375
244000  ekin = 8.58044212001966 |  erot = 9.50948701565276 | epot = -66.5866017229657 | etot = -48.4966725872933
245000  ekin = 9.2687191686159 |  erot = 9.75990826682627 | epot = -67.5253000301824 | etot = -48.4966725947402
246000  ekin = 9.78946573666296 |  erot = 9.96525866120802 | epot = -68.2513969980054 | etot = -48.4966726001345
247000  ekin = 10.0743388396413 |  erot = 10.1147521472247 | epot = -68.6857635892608 | etot = -48.4966726023948
248000  ekin = 10.0941079494532 |  erot = 10.206532881498 | epot = -68.7973134319926 | etot = -48.4966726010414
249000  ekin = 9.86393967730361 |  erot = 10.2475258665348 | epot = -68.6081381410458 | etot = -48.4966725972073
250000  ekin = 9.43636984425731 |  erot = 10.2506637078768 | epot = -68.1837061428483 | etot = -48.4966725907142
251000  ekin = 8.89229868578042 |  erot = 10.2323346091327 | epot = -67.6213058787914 | etot = -48.4966725838783
252000  ekin = 8.31943898663361 |  erot = 10.2075884963019 | epot = -67.0237000610881 | etot = -48.4966725781525
253000  ekin = 7.79276077495274 |  erot = 10.1873587545242 | epot = -66.4767921038599 | etot = -48.4966725743829
254000  ekin = 7.36152147186822 |  erot = 10.1778229232058 | epot = -66.03601696817 | etot = -48.496672573096
255000  ekin = 7.04416809513257 |  erot = 10.1812481941826 | epot = -65.7220888627761 | etot = -48.4966725734609
256000  ekin = 6.8353001740035 |  erot = 10.1962922388028 | epot = -65.5282649876944 | etot = -48.496672574888
257000  ekin = 6.71442148100707 |  erot = 10.2200504443743 | epot = -65.4311445018585 | etot = -48.4966725764771
258000  ekin = 6.65781764564626 |  erot = 10.2492124175314 | epot = -65.4037026408452 | etot = -48.4966725776675
259000  ekin = 6.64642051202585 |  erot = 10.2806008774788 | epot = -65.4236939679489 | etot = -48.4966725784443
260000  ekin = 6.66675395816894 |  erot = 10.3110375472873 | epot = -65.4744640845838 | etot = -48.4966725791275
261000  ekin = 6.7084149260493 |  erot = 10.3378721255429 | epot = -65.542959630796 | etot = -48.4966725792038
262000  ekin = 6.76275619466352 |  erot = 10.359523908258 | epot = -65.6189526827215 | etot = -48.4966725797999
263000  ekin = 6.82191301035944 |  erot = 10.3716898912781 | epot = -65.6902754814686 | etot = -48.4966725798311
264000  ekin = 6.88504914961835 |  erot = 10.3708999773053 | epot = -65.7526217059553 | etot = -48.4966725790316
265000  ekin = 6.96089828669752 |  erot = 10.3558192629958 | epot = -65.8133901272579 | etot = -48.4966725775647
266000  ekin = 7.06529185643773 |  erot = 10.3276065183171 | epot = -65.8895709506743 | etot = -48.4966725759195
267000  ekin = 7.21505088333523 |  erot = 10.2893497391592 | epot = -66.0010731971308 | etot = -48.4966725746363
268000  ekin = 7.42137725344673 |  erot = 10.2450818723131 | epot = -66.1631316998576 | etot = -48.4966725740978
269000  ekin = 7.68524329714002 |  erot = 10.1988935008339 | epot = -66.3808093724186 | etot = -48.4966725744447
270000  ekin = 7.99580948967504 |  erot = 10.1544492652999 | epot = -66.6469313305601 | etot = -48.4966725755852
271000  ekin = 8.33190485119597 |  erot = 10.1151435011318 | epot = -66.9437209293721 | etot = -48.4966725770443
272000  ekin = 8.66610587591667 |  erot = 10.0856409418493 | epot = -67.2484193965944 | etot = -48.4966725788284
273000  ekin = 8.97042145760344 |  erot = 10.0690324252329 | epot = -67.5361264630637 | etot = -48.4966725802274
274000  ekin = 9.22287683292976 |  erot = 10.0690361391169 | epot = -67.788585552807 | etot = -48.4966725807604
275000  ekin = 9.41389302942016 |  erot = 10.09069460311 | epot = -68.0012602127567 | etot = -48.4966725802266
276000  ekin = 9.54942761493551 |  erot = 10.140008311356 | epot = -68.1861085050894 | etot = -48.4966725787979
277000  ekin = 9.64913594522802 |  erot = 10.2229042121121 | epot = -68.3687127343798 | etot = -48.4966725770397
278000  ekin = 9.73935192457082 |  erot = 10.3435700154508 | epot = -68.5795945157675 | etot = -48.4966725757459
279000  ekin = 9.84298152731937 |  erot = 10.5026140404929 | epot = -68.8422681434268 | etot = -48.4966725756146
280000  ekin = 9.97046187704337 |  erot = 10.6957212898459 | epot = -69.162855743773 | etot = -48.4966725768837
281000  ekin = 10.1137684706681 |  erot = 10.9135096018624 | epot = -69.523950655484 | etot = -48.4966725829535
282000  ekin = 10.2288689015528 |  erot = 11.1422719920851 | epot = -69.86781348017 | etot = -48.4966725865322
283000  ekin = 10.2769463822056 |  erot = 11.3646568092214 | epot = -70.1382757810482 | etot = -48.4966725896212
284000  ekin = 10.2298350175387 |  erot = 11.5634949517885 | epot = -70.290002560964 | etot = -48.4966725916368
285000  ekin = 10.0723248849229 |  erot = 11.7243250964796 | epot = -70.2933225738015 | etot = -48.496672592399
286000  ekin = 9.80394054071592 |  erot = 11.8369977519981 | epot = -70.1376108847733 | etot = -48.4966725920593
287000  ekin = 9.43655233182782 |  erot = 11.8964493797702 | epot = -69.829674302525 | etot = -48.496672590927
288000  ekin = 8.9901327175479 |  erot = 11.902740579157 | epot = -69.3895458860256 | etot = -48.4966725893207
289000  ekin = 8.48857673810994 |  erot = 11.8605226371638 | epot = -68.8457719627839 | etot = -48.4966725875102
290000  ekin = 7.95651311705539 |  erot = 11.7780720781012 | epot = -68.2312577808371 | etot = -48.4966725856805
291000  ekin = 7.41785902588458 |  erot = 11.6660397038424 | epot = -67.5805713135375 | etot = -48.4966725838104
292000  ekin = 6.89736764546884 |  erot = 11.536141471831 | epot = -66.9301816988979 | etot = -48.4966725815981
293000  ekin = 6.42572947190971 |  erot = 11.4000701849521 | epot = -66.3224722354562 | etot = -48.4966725785944
294000  ekin = 6.04578762670155 |  erot = 11.2687731411252 | epot = -65.8112333424723 | etot = -48.4966725746456
295000  ekin = 5.81372000921364 |  erot = 11.1519540391732 | epot = -65.4623466187915 | etot = -48.4966725704046
296000  ekin = 5.78868895653777 |  erot = 11.0574288852343 | epot = -65.342790409191 | etot = -48.4966725674189
297000  ekin = 6.01086247217458 |  erot = 10.9900621222423 | epot = -65.4975971618365 | etot = -48.4966725674197
298000  ekin = 6.47793511117987 |  erot = 10.9505151838805 | epot = -65.9251228662748 | etot = -48.4966725712144
299000  ekin = 7.13485226400781 |  erot = 10.9343849130048 | epot = -66.5659097551182 | etot = -48.4966725781056
300000  ekin = 7.8843398635583 |  erot = 10.9323127585972 | epot = -67.3133252084042 | etot = -48.4966725862487
301000  ekin = 8.61282845353812 |  erot = 10.9313732714726 | epot = -68.0408743185696 | etot = -48.4966725935588
302000  ekin = 9.2190844027556 |  erot = 10.9175582659907 | epot = -68.6333152672023 | etot = -48.496672598456
303000  ekin = 9.63516616613168 |  erot = 10.8787665670555 | epot = -69.0106053333962 | etot = -48.496672600209
304000  ekin = 9.83543476975012 |  erot = 10.8074962358146 | epot = -69.1396036043481 | etot = -48.4966725987834
305000  ekin = 9.83532020704423 |  erot = 10.7023193346166 | epot = -69.0343121365634 | etot = -48.4966725949026
306000  ekin = 9.68145093558441 |  erot = 10.5677982812094 | epot = -68.7459218064442 | etot = -48.4966725896504
307000  ekin = 9.43697927067769 |  erot = 10.4129945422942 | epot = -68.3466463972213 | etot = -48.4966725842494
308000  ekin = 9.16617244364365 |  erot = 10.249162357842 | epot = -67.9120073811555 | etot = -48.4966725796698
309000  ekin = 8.92159986058799 |  erot = 10.0874162912876 | epot = -67.5056887285461 | etot = -48.4966725766705
310000  ekin = 8.73563094100268 |  erot = 9.93715103615706 | epot = -67.1694545524292 | etot = -48.4966725752695
311000  ekin = 8.61913259829631 |  erot = 9.80527711012727 | epot = -66.9210822838051 | etot = -48.4966725753815
312000  ekin = 8.56355763428314 |  erot = 9.69617071429806 | epot = -66.756400925111 | etot = -48.4966725765298
313000  ekin = 8.54744454667174 |  erot = 9.6122330215888 | epot = -66.6563501463712 | etot = -48.4966725781106
314000  ekin = 8.54471031357384 |  erot = 9.55468856184849 | epot = -66.5960714549554 | etot = -48.4966725795331
315000  ekin = 8.53582675040519 |  erot = 9.52360081785572 | epot = -66.5561001483226 | etot = -48.4966725800617
316000  ekin = 8.5094790279823 |  erot = 9.51910773891014 | epot = -66.5252593469543 | etot = -48.4966725800619
317000  ekin = 8.46528361600152 |  erot = 9.54310287692726 | epot = -66.5050590717477 | etot = -48.496672578819
318000  ekin = 8.42148334753309 |  erot = 9.5981235634095 | epot = -66.5162794875099 | etot = -48.4966725765674
319000  ekin = 8.41172051678699 |  erot = 9.68666529074488 | epot = -66.5950583814789 | etot = -48.4966725739471
320000  ekin = 8.47631024943806 |  erot = 9.81010411287872 | epot = -66.7830869341882 | etot = -48.4966725718714
321000  ekin = 8.6498148568183 |  erot = 9.96750014912191 | epot = -67.1139875771733 | etot = -48.496672571233
322000  ekin = 8.94886501910083 |  erot = 10.1545796242754 | epot = -67.6001172159299 | etot = -48.4966725725537
323000  ekin = 9.36436094197514 |  erot = 10.3629464345304 | epot = -68.2239799526554 | etot = -48.4966725761499
324000  ekin = 9.85762299123825 |  erot = 10.5807030497697 | epot = -68.9349986231277 | etot = -48.4966725821198
325000  ekin = 10.3675336373471 |  erot = 10.7915336066554 | epot = -69.6557398310267 | etot = -48.4966725870242
326000  ekin = 10.8169039904564 |  erot = 10.9780749030613 | epot = -70.2916514882985 | etot = -48.4966725947808
327000  ekin = 11.1080827251804 |  erot = 11.1278633890751 | epot = -70.7326187147202 | etot = -48.4966726004648
328000  ekin = 11.1668072002698 |  erot = 11.235581979119 | epot = -70.8990617815518 | etot = -48.496672602163
329000  ekin = 10.9674032566263 |  erot = 11.3047655940294 | epot = -70.7688414495806 | etot = -48.4966725989249
330000  ekin = 10.5471219087651 |  erot = 11.3459152750506 | epot = -70.3897097754386 | etot = -48.4966725916229
331000  ekin = 9.99817977286477 |  erot = 11.3709343469051 | epot = -69.8657867027716 | etot = -48.4966725830017
332000  ekin = 9.43640210779161 |  erot = 11.3868472546779 | epot = -69.3199219385002 | etot = -48.4966725760307
333000  ekin = 8.96275314873043 |  erot = 11.3930028323247 | epot = -68.8524285534208 | etot = -48.4966725723657
334000  ekin = 8.63845657352137 |  erot = 11.3827647269787 | epot = -68.5178938722164 | etot = -48.4966725717163
335000  ekin = 8.47696736448155 |  erot = 11.3460820193868 | epot = -68.3197219598745 | etot = -48.4966725760062
336000  ekin = 8.45129453003907 |  erot = 11.271695610019 | epot = -68.2196627183544 | etot = -48.4966725782963
337000  ekin = 8.52855094859617 |  erot = 11.1567863476896 | epot = -68.1820098764353 | etot = -48.4966725801496
338000  ekin = 8.67667036350129 |  erot = 11.0029242666306 | epot = -68.1762672115729 | etot = -48.496672581441
339000  ekin = 8.86840718542294 |  erot = 10.8141117179378 | epot = -68.1791914857458 | etot = -48.4966725823851
340000  ekin = 9.08074049345169 |  erot = 10.5949858590784 | epot = -68.1723989357664 | etot = -48.4966725832363
341000  ekin = 9.29280025523579 |  erot = 10.3497144840259 | epot = -68.1391873233636 | etot = -48.4966725841019
342000  ekin = 9.48478364391247 |  erot = 10.0817821314082 | epot = -68.0632383602055 | etot = -48.4966725848848
343000  ekin = 9.63889599724716 |  erot = 9.79448397039707 | epot = -67.93005255299 | etot = -48.4966725853457
344000  ekin = 9.74179750089009 |  erot = 9.4917192019294 | epot = -67.7301892880752 | etot = -48.4966725852557
345000  ekin = 9.78689625542422 |  erot = 9.17855510440913 | epot = -67.4621239444499 | etot = -48.4966725846166
346000  ekin = 9.77487619977468 |  erot = 8.86098115602627 | epot = -67.1325299393768 | etot = -48.4966725835759
347000  ekin = 9.71190434739063 |  erot = 8.54542801628353 | epot = -66.7540049461155 | etot = -48.4966725824413
348000  ekin = 9.60626623886217 |  erot = 8.23797752714695 | epot = -66.3409163475079 | etot = -48.4966725814987
349000  ekin = 9.46512205487128 |  erot = 7.94382241628492 | epot = -65.9056170520677 | etot = -48.4966725809115
350000  ekin = 9.2926392134524 |  erot = 7.66718775571344 | epot = -65.4564995498234 | etot = -48.4966725806576
351000  ekin = 9.09030704039199 |  erot = 7.41172558155473 | epot = -64.9987052024707 | etot = -48.496672580524
352000  ekin = 8.85964507190632 |  erot = 7.18116708500366 | epot = -64.5374847370632 | etot = -48.4966725801532
353000  ekin = 8.60706719311573 |  erot = 6.97993996550565 | epot = -64.0836797376587 | etot = -48.4966725790373
354000  ekin = 8.35365998677636 |  erot = 6.81451510370332 | epot = -63.6648476658659 | etot = -48.4966725753862
355000  ekin = 8.13817060766868 |  erot = 6.69316622831137 | epot = -63.3280094087244 | etot = -48.4966725727444
356000  ekin = 8.00303344817147 |  erot = 6.62071403036038 | epot = -63.1204200476309 | etot = -48.4966725690991
357000  ekin = 8.00329594802588 |  erot = 6.60119920911237 | epot = -63.1011677226043 | etot = -48.4966725654661
358000  ekin = 8.19390069542753 |  erot = 6.63655005198042 | epot = -63.3271233108303 | etot = -48.4966725634223
359000  ekin = 8.60851483669159 |  erot = 6.72479591294548 | epot = -63.8299833140579 | etot = -48.4966725644208
360000  ekin = 9.24022555644824 |  erot = 6.8587587418056 | epot = -64.5956568672208 | etot = -48.4966725689669
361000  ekin = 10.0343517665546 |  erot = 7.02601171011792 | epot = -65.5570360531821 | etot = -48.4966725765096
362000  ekin = 10.8949623485305 |  erot = 7.21007448015754 | epot = -66.6017094133768 | etot = -48.4966725846887
363000  ekin = 11.7154060071912 |  erot = 7.39407842265113 | epot = -67.6061570205474 | etot = -48.496672590705
364000  ekin = 12.4057223336107 |  erot = 7.56453665262811 | epot = -68.4669315836149 | etot = -48.4966725973761
365000  ekin = 12.8900700952349 |  erot = 7.71262358051743 | epot = -69.0993662750154 | etot = -48.496672599263
366000  ekin = 13.1382701917095 |  erot = 7.83636021671281 | epot = -69.471303006102 | etot = -48.4966725976796
367000  ekin = 13.1662433494557 |  erot = 7.94108342051439 | epot = -69.6039993641117 | etot = -48.4966725941415
368000  ekin = 13.0216257322033 |  erot = 8.0374630061927 | epot = -69.5557613271094 | etot = -48.4966725887134
369000  ekin = 12.769963920519 |  erot = 8.13884083904861 | epot = -69.4054773430338 | etot = -48.4966725834662
370000  ekin = 12.4763633940929 |  erot = 8.25852807051174 | epot = -69.2315640444607 | etot = -48.496672579856
371000  ekin = 12.1883522141647 |  erot = 8.40712894601206 | epot = -69.0921537380246 | etot = -48.4966725778479
372000  ekin = 11.9337668266726 |  erot = 8.59209712213769 | epot = -69.0225365257458 | etot = -48.4966725769356
373000  ekin = 11.7268114357458 |  erot = 8.81820188226106 | epot = -69.0416858943889 | etot = -48.4966725763821
374000  ekin = 11.5751062922245 |  erot = 9.08799140196382 | epot = -69.1597702703536 | etot = -48.4966725761652
375000  ekin = 11.4816771194394 |  erot = 9.40179119698384 | epot = -69.3801408929862 | etot = -48.4966725765629
376000  ekin = 11.4415244462656 |  erot = 9.75725267435532 | epot = -69.6954496985986 | etot = -48.4966725779777
377000  ekin = 11.436431735687 |  erot = 10.1487019288261 | epot = -70.0818062452346 | etot = -48.4966725807216
378000  ekin = 11.4326847178492 |  erot = 10.5666289070289 | epot = -70.4959862088959 | etot = -48.4966725840177
379000  ekin = 11.3879261245342 |  erot = 10.9960382478704 | epot = -70.880636961035 | etot = -48.4966725886304
380000  ekin = 11.2500883026629 |  erot = 11.4211944009693 | epot = -71.1679552964153 | etot = -48.4966725927831
381000  ekin = 10.9726921229797 |  erot = 11.8269291033701 | epot = -71.2962938220753 | etot = -48.4966725957254
382000  ekin = 10.5281602154217 |  erot = 12.1993149200526 | epot = -71.2241477322317 | etot = -48.4966725967574
383000  ekin = 9.91669157183231 |  erot = 12.5275908716589 | epot = -70.9409550387353 | etot = -48.496672595244
384000  ekin = 9.17301492864935 |  erot = 12.8043890136535 | epot = -70.4740765340949 | etot = -48.4966725917921
385000  ekin = 8.36601181966448 |  erot = 13.025184743625 | epot = -69.8878691486822 | etot = -48.4966725853927
386000  ekin = 7.59336935508667 |  erot = 13.193758705549 | epot = -69.2838006385147 | etot = -48.496672577879
387000  ekin = 6.96355937776614 |  erot = 13.3174316291701 | epot = -68.7776635784246 | etot = -48.4966725714883
388000  ekin = 6.56667711259415 |  erot = 13.4028350179085 | epot = -68.4661846988794 | etot = -48.4966725683767
389000  ekin = 6.44526911469013 |  erot = 13.4523416306407 | epot = -68.3942833608934 | etot = -48.4966726155626
390000  ekin = 6.40022004920146 |  erot = 13.5413190040068 | epot = -68.4382116193493 | etot = -48.4966725661411
391000  ekin = 6.74670657782449 |  erot = 13.63080367899 | epot = -68.8741828739057 | etot = -48.4966726170912
392000  ekin = 7.27053910737219 |  erot = 13.5318497226388 | epot = -69.2990614444092 | etot = -48.4966726143983
393000  ekin = 7.84211066748174 |  erot = 13.3471669898597 | epot = -69.6859502752953 | etot = -48.4966726179538
394000  ekin = 8.41137168863525 |  erot = 13.0851416289701 | epot = -69.9931859369637 | etot = -48.4966726193584
395000  ekin = 8.94777378648447 |  erot = 12.7509585841114 | epot = -70.1954049894887 | etot = -48.4966726188928
396000  ekin = 9.44412388894663 |  erot = 12.3562529221233 | epot = -70.2970494281605 | etot = -48.4966726170906
397000  ekin = 9.91050995595219 |  erot = 11.9175382863785 | epot = -70.3247208568517 | etot = -48.496672614521
398000  ekin = 10.3672265667664 |  erot = 11.4545225019182 | epot = -70.318421680301 | etot = -48.4966726116164
399000  ekin = 10.8377881061217 |  erot = 10.9888166293444 | epot = -70.3232773445587 | etot = -48.4966726090925
400000  ekin = 11.3412083655992 |  erot = 10.5421455765277 | epot = -70.3800265494729 | etot = -48.496672607346
401000  ekin = 11.8856989725314 |  erot = 10.1353050509476 | epot = -70.5176766301426 | etot = -48.4966726066637
402000  ekin = 12.4648693384653 |  erot = 9.78704273788209 | epot = -70.7485846834605 | etot = -48.4966726071131
403000  ekin = 13.0574032172324 |  erot = 9.5128760737676 | epot = -71.0669518996423 | etot = -48.4966726086423
404000  ekin = 13.6291563425228 |  erot = 9.32384163731231 | epot = -71.4496705902182 | etot = -48.4966726103832
405000  ekin = 14.1398204789843 |  erot = 9.22499609599242 | epot = -71.8614891889807 | etot = -48.4966726140039
406000  ekin = 14.5379075449123 |  erot = 9.21473993625283 | epot = -72.2493200997704 | etot = -48.4966726186052
407000  ekin = 14.7678000073914 |  erot = 9.28285845909459 | epot = -72.5473310902294 | etot = -48.4966726237434
408000  ekin = 14.7748392327875 |  erot = 9.41288741278175 | epot = -72.6843992736304 | etot = -48.4966726280611
409000  ekin = 14.5211191200051 |  erot = 9.58494933066776 | epot = -72.6027410803525 | etot = -48.4966726296797
410000  ekin = 14.0080722078023 |  erot = 9.78050651649347 | epot = -72.2852513515888 | etot = -48.496672627293
411000  ekin = 13.288563349052 |  erot = 9.98745844075528 | epot = -71.7726944109966 | etot = -48.4966726211894
412000  ekin = 12.460210580234 |  erot = 10.2020245096589 | epot = -71.1589077031122 | etot = -48.4966726132193
413000  ekin = 11.6411968847483 |  erot = 10.426505650031 | epot = -70.5643751405497 | etot = -48.4966726057704
414000  ekin = 10.9403488034568 |  erot = 10.6647067440193 | epot = -70.1017281481798 | etot = -48.4966726007037
415000  ekin = 10.4337835958774 |  erot = 10.9176175689155 | epot = -69.8480737636803 | etot = -48.4966725988874
416000  ekin = 10.1537726116109 |  erot = 11.1808649833192 | epot = -69.8313101952282 | etot = -48.496672600298
417000  ekin = 10.0887098230936 |  erot = 11.4440532452323 | epot = -70.0294356728411 | etot = -48.4966726045152
418000  ekin = 10.1900748296355 |  erot = 11.6914864860196 | epot = -70.3782339258565 | etot = -48.4966726102015
419000  ekin = 10.3882021396905 |  erot = 11.9042621356548 | epot = -70.7891368916886 | etot = -48.4966726163433
420000  ekin = 10.606829464949 |  erot = 12.0629207258475 | epot = -71.1664228125028 | etot = -48.4966726217063
421000  ekin = 10.7783620216888 |  erot = 12.150779087378 | epot = -71.4258137343443 | etot = -48.4966726252775
422000  ekin = 10.8559244969796 |  erot = 12.1572275839777 | epot = -71.5098247075385 | etot = -48.4966726265812
423000  ekin = 10.8187145658835 |  erot = 12.0798940410437 | epot = -71.3952812327002 | etot = -48.4966726257729
424000  ekin = 10.6702271597782 |  erot = 11.9248162769285 | epot = -71.0917160600937 | etot = -48.496672623387
425000  ekin = 10.4326823760934 |  erot = 11.7046834731854 | epot = -70.6340384692341 | etot = -48.4966726199553
426000  ekin = 10.1418512280103 |  erot = 11.436068019981 | epot = -70.0745918638505 | etot = -48.4966726158592
427000  ekin = 9.84290131622511 |  erot = 11.1364780215198 | epot = -69.4760519492727 | etot = -48.4966726115278
428000  ekin = 9.58662756134725 |  erot = 10.8219607622134 | epot = -68.9052609309394 | etot = -48.4966726073788
429000  ekin = 9.42385367704392 |  erot = 10.5054247282113 | epot = -68.4259510096048 | etot = -48.4966726043496
430000  ekin = 9.39326971069224 |  erot = 10.1945970633379 | epot = -68.0845393772943 | etot = -48.4966726032642
431000  ekin = 9.51026104611719 |  erot = 9.8911895677647 | epot = -67.8981232184534 | etot = -48.4966726045716
432000  ekin = 9.76020464995925 |  erot = 9.5915852224295 | epot = -67.8484624803397 | etot = -48.496672607951
433000  ekin = 10.1011132166244 |  erot = 9.28935747990531 | epot = -67.8871433087245 | etot = -48.4966726121948
434000  ekin = 10.4772946453766 |  erot = 8.97915707055331 | epot = -67.953124331566 | etot = -48.4966726156361
435000  ekin = 10.8390965471412 |  erot = 8.66047090161993 | epot = -67.996240065823 | etot = -48.4966726170619
436000  ekin = 11.1581846565986 |  erot = 8.33927074928101 | epot = -67.9941280217349 | etot = -48.4966726158552
437000  ekin = 11.432268455823 |  erot = 8.02673002725731 | epot = -67.9556710974562 | etot = -48.496672614376
438000  ekin = 11.6671720806776 |  erot = 7.73476573345945 | epot = -67.8986104279699 | etot = -48.4966726138328
439000  ekin = 11.8579368223522 |  erot = 7.47155579532729 | epot = -67.826165232618 | etot = -48.4966726149385
440000  ekin = 11.9818235336976 |  erot = 7.23965689694651 | epot = -67.7181530476984 | etot = -48.4966726170543
441000  ekin = 12.0063643091954 |  erot = 7.03716778988591 | epot = -67.5402047178067 | etot = -48.4966726187254
442000  ekin = 11.9008309355908 |  erot = 6.85995053949895 | epot = -67.2574540949839 | etot = -48.4966726198942
443000  ekin = 11.6372457710087 |  erot = 6.7022277476749 | epot = -66.8361461367633 | etot = -48.4966726180797
444000  ekin = 11.2404935703096 |  erot = 6.56274006492763 | epot = -66.2999062491654 | etot = -48.4966726139282
445000  ekin = 10.7717210496827 |  erot = 6.4429215984777 | epot = -65.7113152554462 | etot = -48.4966726072858
446000  ekin = 10.3146345399999 |  erot = 6.34495994126093 | epot = -65.1562670843361 | etot = -48.4966726030753
447000  ekin = 9.93895886679915 |  erot = 6.27103072196531 | epot = -64.7066621875609 | etot = -48.4966725987964
448000  ekin = 9.70550645607937 |  erot = 6.22337425449727 | epot = -64.4255533068031 | etot = -48.4966725962264
449000  ekin = 9.6530335736759 |  erot = 6.2034465743772 | epot = -64.3531527439955 | etot = -48.4966725959424
450000  ekin = 9.78741215228257 |  erot = 6.21100556223293 | epot = -64.4950903141066 | etot = -48.4966725995911
451000  ekin = 10.0726697695133 |  erot = 6.24121610507292 | epot = -64.8105584783651 | etot = -48.4966726037789
452000  ekin = 10.4498627201464 |  erot = 6.28789558017576 | epot = -65.2344309085245 | etot = -48.4966726082024
453000  ekin = 10.8573529820833 |  erot = 6.34427199361381 | epot = -65.6982975879972 | etot = -48.4966726123
454000  ekin = 11.238372959501 |  erot = 6.40217211179787 | epot = -66.1372176874531 | etot = -48.4966726161543
455000  ekin = 11.5411597564417 |  erot = 6.45158842061218 | epot = -66.4894207971905 | etot = -48.4966726201366
456000  ekin = 11.7145965069808 |  erot = 6.48095932011327 | epot = -66.6922284513008 | etot = -48.4966726242068
457000  ekin = 11.7080889257871 |  erot = 6.47904948061434 | epot = -66.6838110338824 | etot = -48.496672627481
458000  ekin = 11.4817974385262 |  erot = 6.43838338688392 | epot = -66.4168534538168 | etot = -48.4966726284067
459000  ekin = 11.0260461729953 |  erot = 6.35890594747365 | epot = -65.8816247459524 | etot = -48.4966726254834
460000  ekin = 10.3811213891593 |  erot = 6.25005112059357 | epot = -65.1278451279115 | etot = -48.4966726181587
461000  ekin = 9.64500400724539 |  erot = 6.13001722354411 | epot = -64.2716938384194 | etot = -48.4966726076299
462000  ekin = 8.96155334210888 |  erot = 6.023256533428 | epot = -63.4814824659696 | etot = -48.4966725904327
463000  ekin = 8.49356022964652 |  erot = 5.96064229273101 | epot = -62.9508751084078 | etot = -48.4966725860303
464000  ekin = 8.3109832269994 |  erot = 5.95399558727875 | epot = -62.7616514010977 | etot = -48.4966725868196
465000  ekin = 8.41527289817054 |  erot = 6.00555163247631 | epot = -62.9174971227977 | etot = -48.4966725921508
466000  ekin = 8.74071951181334 |  erot = 6.1074520246182 | epot = -63.3448441360465 | etot = -48.496672599615
467000  ekin = 8.88640654846822 |  erot = 6.32601497552094 | epot = -63.7090940526874 | etot = -48.4966725286982
468000  ekin = 9.0750516035185 |  erot = 6.75512448023888 | epot = -64.3268486410198 | etot = -48.4966725572624
469000  ekin = 9.43618930731314 |  erot = 6.98018590409865 | epot = -64.9130477257798 | etot = -48.4966725143681
470000  ekin = 9.53891928915698 |  erot = 7.0561400395595 | epot = -65.0917318420509 | etot = -48.4966725133344
471000  ekin = 9.47129866747543 |  erot = 7.09012582278599 | epot = -65.0580969996111 | etot = -48.4966725093497
472000  ekin = 9.29219039290813 |  erot = 7.08038845062592 | epot = -64.8692513474695 | etot = -48.4966725039354
473000  ekin = 9.07859106345966 |  erot = 7.03223766265292 | epot = -64.6075012243809 | etot = -48.4966724982683
474000  ekin = 8.90859119073686 |  erot = 6.95657374545393 | epot = -64.3618374292724 | etot = -48.4966724930816
475000  ekin = 8.85085237794158 |  erot = 6.86788557830663 | epot = -64.2154104451249 | etot = -48.4966724888767
476000  ekin = 8.95844704214326 |  erot = 6.78173938271417 | epot = -64.2368589108589 | etot = -48.4966724860014
477000  ekin = 9.26445642864463 |  erot = 6.71235576618911 | epot = -64.473484683134 | etot = -48.4966724883002
478000  ekin = 9.75673758778239 |  erot = 6.67310243749833 | epot = -64.9265125144142 | etot = -48.4966724891335
479000  ekin = 10.408371941381 |  erot = 6.67104131552804 | epot = -65.5760857486861 | etot = -48.4966724917771
480000  ekin = 11.1786387692915 |  erot = 6.70609770627738 | epot = -66.3814089720493 | etot = -48.4966724964804
481000  ekin = 11.9550179834086 |  erot = 6.77573712920239 | epot = -67.2274276421764 | etot = -48.4966725295654
482000  ekin = 12.1969877155094 |  erot = 6.97182101601101 | epot = -67.6654811323482 | etot = -48.4966724008278
483000  ekin = 12.8315687003051 |  erot = 7.27453378454011 | epot = -68.6027750200594 | etot = -48.4966725352142
484000  ekin = 13.13790895486 |  erot = 7.35121017883247 | epot = -68.9857915492381 | etot = -48.4966724155457
485000  ekin = 13.1455744815471 |  erot = 7.39132031005556 | epot = -69.0335672082909 | etot = -48.4966724166883
486000  ekin = 12.8847677059985 |  erot = 7.41820327750727 | epot = -68.7996433974145 | etot = -48.4966724139087
487000  ekin = 12.3995023295783 |  erot = 7.43730294198577 | epot = -68.3334776794202 | etot = -48.4966724078561
488000  ekin = 11.7801246298366 |  erot = 7.45872842906974 | epot = -67.7355254587712 | etot = -48.4966723998648
489000  ekin = 11.1454971167105 |  erot = 7.49387389622027 | epot = -67.1360434046962 | etot = -48.4966723917654
490000  ekin = 10.6174118656969 |  erot = 7.55177149141342 | epot = -66.6658557428969 | etot = -48.4966723857866
491000  ekin = 10.2893788237483 |  erot = 7.63548116162134 | epot = -66.4215323695572 | etot = -48.4966723841876
492000  ekin = 10.1956274376093 |  erot = 7.73922358368443 | epot = -66.431523409632 | etot = -48.4966723883382
493000  ekin = 10.2924671649537 |  erot = 7.8479318666189 | epot = -66.6370714291169 | etot = -48.4966723975444
494000  ekin = 10.4668249564136 |  erot = 7.94111684624157 | epot = -66.9046142110748 | etot = -48.4966724084196
495000  ekin = 10.5791383442082 |  erot = 8.00124026343135 | epot = -67.0770510235069 | etot = -48.4966724158674
496000  ekin = 10.5277635544327 |  erot = 8.02342438970159 | epot = -67.0478603600183 | etot = -48.496672415884
497000  ekin = 10.3008638581754 |  erot = 8.02081822152775 | epot = -66.8183544879259 | etot = -48.4966724082227
498000  ekin = 9.98303008289992 |  erot = 8.0216864522399 | epot = -66.5013889316723 | etot = -48.4966723965324
499000  ekin = 9.7134258919299 |  erot = 8.0596272041558 | epot = -66.2697254819498 | etot = -48.4966723858641
500000  ekin = 9.6235168911551 |  erot = 8.16244515237977 | epot = -66.282634423517 | etot = -48.4966723799821
501000  ekin = 9.7878733339747 |  erot = 8.34447303670474 | epot = -66.6290187508761 | etot = -48.4966723801966
502000  ekin = 10.2050108702395 |  erot = 8.60370485256722 | epot = -67.3053881085978 | etot = -48.4966723857911
503000  ekin = 10.8051989674358 |  erot = 8.92246829120522 | epot = -68.2243396538445 | etot = -48.4966723952035
504000  ekin = 11.4710453969824 |  erot = 9.26984220619697 | epot = -69.2375600101482 | etot = -48.4966724069688
505000  ekin = 12.0583532742146 |  erot = 9.60506055560107 | epot = -70.1600862494527 | etot = -48.4966724196371
506000  ekin = 12.4169616298885 |  erot = 9.88273601243599 | epot = -70.7963700730297 | etot = -48.4966724307052
507000  ekin = 12.4225762032045 |  erot = 10.061442967139 | epot = -70.9806916065632 | etot = -48.4966724362197
508000  ekin = 12.0224546477498 |  erot = 10.1150484290017 | epot = -70.6341755096207 | etot = -48.4966724328693
509000  ekin = 11.2713256107929 |  erot = 10.0417150354944 | epot = -69.8097130672034 | etot = -48.4966724209162
510000  ekin = 10.3259224264507 |  erot = 9.86440101433289 | epot = -68.6869958451964 | etot = -48.4966724044128
511000  ekin = 9.3956676779507 |  erot = 9.62224126641183 | epot = -67.5145813329438 | etot = -48.4966723885812
512000  ekin = 8.67739606864501 |  erot = 9.35823452027668 | epot = -66.5323029667277 | etot = -48.496672377806
513000  ekin = 8.30173505002651 |  erot = 9.10874451688228 | epot = -65.9071519407521 | etot = -48.4966723738433
514000  ekin = 8.31133758541602 |  erot = 8.90213046050212 | epot = -65.7101404213423 | etot = -48.4966723754242
515000  ekin = 8.65105183700748 |  erot = 8.75142823024764 | epot = -65.8991524514096 | etot = -48.4966723841545
516000  ekin = 9.19545504798461 |  erot = 8.65020590791678 | epot = -66.3423333511376 | etot = -48.4966723952362
517000  ekin = 9.78948013477448 |  erot = 8.58459334668224 | epot = -66.8707458886386 | etot = -48.4966724071819
518000  ekin = 10.2719405202739 |  erot = 8.53610767679437 | epot = -67.3047206151974 | etot = -48.4966724181291
519000  ekin = 10.5035619039292 |  erot = 8.48509741613637 | epot = -67.4853317484072 | etot = -48.4966724283417
520000  ekin = 10.3837804904439 |  erot = 8.4185529346422 | epot = -67.299005853802 | etot = -48.4966724287159
521000  ekin = 9.91971480310289 |  erot = 8.33012920361431 | epot = -66.7465164259679 | etot = -48.4966724192507
522000  ekin = 9.25580910200891 |  erot = 8.22471517246832 | epot = -65.9771966777703 | etot = -48.4966724032931
523000  ekin = 8.61677254367396 |  erot = 8.11873116217809 | epot = -65.2321760932712 | etot = -48.4966723874192
524000  ekin = 8.22312599619215 |  erot = 8.03533827064325 | epot = -64.7551366426351 | etot = -48.4966723757997
525000  ekin = 8.23096919094294 |  erot = 7.99952905915158 | epot = -64.7271706203756 | etot = -48.4966723702811
526000  ekin = 8.70541343268409 |  erot = 8.03327780739395 | epot = -65.2353636116584 | etot = -48.4966723715804
527000  ekin = 9.61054447385068 |  erot = 8.14859195680178 | epot = -66.2558088113651 | etot = -48.4966723807127
528000  ekin = 10.8064190210147 |  erot = 8.34203048713889 | epot = -67.6451219042818 | etot = -48.4966723961282
529000  ekin = 12.0748947022308 |  erot = 8.59301141005036 | epot = -69.1645785260256 | etot = -48.4966724137444
530000  ekin = 13.177289905453 |  erot = 8.8673123021083 | epot = -70.5412746358658 | etot = -48.4966724283045
531000  ekin = 13.9222479330539 |  erot = 9.12596646775362 | epot = -71.5448868368158 | etot = -48.4966724360083
532000  ekin = 14.210904011063 |  erot = 9.33621159861401 | epot = -72.0437880461411 | etot = -48.4966724364641
533000  ekin = 14.0393496049126 |  erot = 9.47948522979729 | epot = -72.0155072660405 | etot = -48.4966724313306
534000  ekin = 13.4765937111368 |  erot = 9.55437050371328 | epot = -71.527636636619 | etot = -48.4966724217688
535000  ekin = 12.6476855099097 |  erot = 9.57521298736091 | epot = -70.7195709061331 | etot = -48.4966724088625
536000  ekin = 11.718749951129 |  erot = 9.56662150354729 | epot = -69.7820438498308 | etot = -48.4966723951545
537000  ekin = 10.8667161280816 |  erot = 9.55558575459953 | epot = -68.9189742664033 | etot = -48.4966723837221
538000  ekin = 10.2407642556268 |  erot = 9.56460479414679 | epot = -68.302041426491 | etot = -48.4966723767174
539000  ekin = 9.93256310307697 |  erot = 9.60813474987677 | epot = -68.037370227873 | etot = -48.4966723749192
540000  ekin = 9.96635059457486 |  erot = 9.69366995182215 | epot = -68.1566929215853 | etot = -48.4966723751883
541000  ekin = 10.3033434565777 |  erot = 9.82452773457665 | epot = -68.6245435737286 | etot = -48.4966723825743
542000  ekin = 10.8374546471387 |  erot = 9.9921020373519 | epot = -69.3262290765049 | etot = -48.4966723920143
543000  ekin = 11.4320363085634 |  erot = 10.1839460986686 | epot = -70.1126548088366 | etot = -48.4966724016046
544000  ekin = 11.948154948771 |  erot = 10.3868550357802 | epot = -70.8316823941612 | etot = -48.49667240961
545000  ekin = 12.2696023021974 |  erot = 10.5892508892031 | epot = -71.355525606131 | etot = -48.4966724147305
546000  ekin = 12.3217483706835 |  erot = 10.7831241363216 | epot = -71.6015449232961 | etot = -48.496672416291
547000  ekin = 12.0815090899112 |  erot = 10.9652333442976 | epot = -71.5434148485141 | etot = -48.4966724143053
548000  ekin = 11.5772594483762 |  erot = 11.1370572249311 | epot = -71.2109890828717 | etot = -48.4966724095643
549000  ekin = 10.8796146423385 |  erot = 11.3027415301221 | epot = -70.6790285756123 | etot = -48.4966724031517
550000  ekin = 10.0861650600765 |  erot = 11.4673420616801 | epot = -70.0501795180506 | etot = -48.496672396294
551000  ekin = 9.30420856255648 |  erot = 11.6346062512954 | epot = -69.435487203932 | etot = -48.4966723900801
552000  ekin = 8.63456852520361 |  erot = 11.8051739021286 | epot = -68.9364148127313 | etot = -48.4966723853991
553000  ekin = 8.15765857149026 |  erot = 11.9755314527358 | epot = -68.6298624071757 | etot = -48.4966723829497
554000  ekin = 7.92204387531455 |  erot = 12.1379035109442 | epot = -68.5566197694137 | etot = -48.4966723831549
555000  ekin = 7.93668594965314 |  erot = 12.2813102396024 | epot = -68.7146685752807 | etot = -48.4966723860252
556000  ekin = 8.16908147828694 |  erot = 12.3937793343027 | epot = -69.0595332035565 | etot = -48.4966723909668
557000  ekin = 8.55144497219972 |  erot = 12.4654791728136 | epot = -69.5135965418806 | etot = -48.4966723968673
558000  ekin = 8.99506879127111 |  erot = 12.4919043884477 | epot = -69.9836455820341 | etot = -48.4966724023153
559000  ekin = 9.40988612193247 |  erot = 12.4759637500273 | epot = -70.3825222781014 | etot = -48.4966724061416
560000  ekin = 9.72239125488287 |  erot = 12.4279361391008 | epot = -70.6469998020022 | etot = -48.4966724080186
561000  ekin = 9.88412985933598 |  erot = 12.3629252843617 | epot = -70.7437275521373 | etot = -48.4966724084397
562000  ekin = 9.87014392588961 |  erot = 12.2969140239661 | epot = -70.6637303577807 | etot = -48.4966724079251
563000  ekin = 9.6726905298189 |  erot = 12.2435461742463 | epot = -70.4129091124385 | etot = -48.4966724083733
564000  ekin = 9.29561869660196 |  erot = 12.2123745870862 | epot = -70.0046656892438 | etot = -48.4966724055556
565000  ekin = 8.77967610194274 |  erot = 12.2075615849149 | epot = -69.4839100880162 | etot = -48.4966724011586
566000  ekin = 8.19459477309407 |  erot = 12.2284388471773 | epot = -68.9197060162464 | etot = -48.496672395975
567000  ekin = 7.62573923576834 |  erot = 12.2693533996207 | epot = -68.3917650267538 | etot = -48.4966723913648
568000  ekin = 7.15404054179019 |  erot = 12.3199400383755 | epot = -67.9706529686436 | etot = -48.4966723884779
569000  ekin = 6.83717313915581 |  erot = 12.3666389683562 | epot = -67.7004844952647 | etot = -48.4966723877527
570000  ekin = 6.69956781460038 |  erot = 12.3955125883768 | epot = -67.5917527918501 | etot = -48.4966723888729
571000  ekin = 6.73320809593817 |  erot = 12.3955019363244 | epot = -67.6253824233229 | etot = -48.4966723910603
572000  ekin = 6.90669043381616 |  erot = 12.3609011894369 | epot = -67.7642640153561 | etot = -48.496672392103
573000  ekin = 7.18429647813533 |  erot = 12.2951299555163 | epot = -67.9760988288075 | etot = -48.4966723951559
574000  ekin = 7.52006639749171 |  erot = 12.2050646486278 | epot = -68.2218034428651 | etot = -48.4966723967456
575000  ekin = 7.87441000626206 |  erot = 12.0985403158999 | epot = -68.4696227187658 | etot = -48.4966723966038
576000  ekin = 8.2315223148527 |  erot = 11.9863053711519 | epot = -68.7145000811368 | etot = -48.4966723951322
577000  ekin = 8.59621090782922 |  erot = 11.8802945474487 | epot = -68.9731778483475 | etot = -48.4966723930696
578000  ekin = 8.98550446113957 |  erot = 11.7917589254297 | epot = -69.2739357776389 | etot = -48.4966723910696
579000  ekin = 9.4204076463082 |  erot = 11.7296557360891 | epot = -69.6467357719289 | etot = -48.4966723895316
580000  ekin = 9.92026928436512 |  erot = 11.6994636247838 | epot = -70.1164052981163 | etot = -48.4966723889674
581000  ekin = 10.4812356259201 |  erot = 11.7036776252827 | epot = -70.6815856416115 | etot = -48.4966723904087
582000  ekin = 11.0803741506148 |  erot = 11.738162895681 | epot = -71.3152094399363 | etot = -48.4966723936404
583000  ekin = 11.6832905432409 |  erot = 11.7898051581735 | epot = -71.9697681009237 | etot = -48.4966723995094
584000  ekin = 12.2265963017285 |  erot = 11.8360805991756 | epot = -72.5593493092627 | etot = -48.4966724083586
585000  ekin = 12.6146924453804 |  erot = 11.8453302035182 | epot = -72.9566950678667 | etot = -48.4966724189682
586000  ekin = 12.7381776543072 |  erot = 11.7813880280187 | epot = -73.0162381105366 | etot = -48.4966724282108
587000  ekin = 12.5064805858653 |  erot = 11.6131474320241 | epot = -72.616300450362 | etot = -48.4966724324727
588000  ekin = 11.8864734315255 |  erot = 11.3251009525388 | epot = -71.7082468121738 | etot = -48.4966724281095
589000  ekin = 10.9473869135626 |  erot = 10.9235098586929 | epot = -70.3675691877978 | etot = -48.4966724155422
590000  ekin = 9.8603569686898 |  erot = 10.4344934449583 | epot = -68.79152281168 | etot = -48.4966723980319
591000  ekin = 8.85631509727399 |  erot = 9.89621562651999 | epot = -67.2492031047007 | etot = -48.4966723809067
592000  ekin = 8.15513077390239 |  erot = 9.34935781089287 | epot = -66.0011609546686 | etot = -48.4966723698733
593000  ekin = 7.88860666865853 |  erot = 8.8296560977792 | epot = -65.2149351345304 | etot = -48.4966723680926
594000  ekin = 8.05760926838843 |  erot = 8.36349649520624 | epot = -64.9177781379641 | etot = -48.4966723743694
595000  ekin = 8.55177999820327 |  erot = 7.96715997626862 | epot = -65.0156123581998 | etot = -48.4966723837279
596000  ekin = 9.20240795645786 |  erot = 7.64971555623384 | epot = -65.3487959078738 | etot = -48.4966723951821
597000  ekin = 9.82563991118038 |  erot = 7.41365255176182 | epot = -65.7359648662847 | etot = -48.4966724033425
598000  ekin = 10.283195898143 |  erot = 7.25474571555043 | epot = -66.0346140227612 | etot = -48.4966724090677
599000  ekin = 10.4823548482027 |  erot = 7.16384844602014 | epot = -66.1428757064833 | etot = -48.4966724122604
600000  ekin = 10.3776559577524 |  erot = 7.12899314638905 | epot = -66.0033215165627 | etot = -48.4966724124212
601000  ekin = 9.97447570394111 |  erot = 7.13881295942943 | epot = -65.6099610723484 | etot = -48.4966724089778
602000  ekin = 9.33239148586575 |  erot = 7.18604650078759 | epot = -65.0151103885691 | etot = -48.4966724019158
603000  ekin = 8.56059728307456 |  erot = 7.26939823177262 | epot = -64.3266679072619 | etot = -48.4966723924147
604000  ekin = 7.79844425918683 |  erot = 7.39226229322887 | epot = -63.6873789354775 | etot = -48.4966723830618
605000  ekin = 7.1833435570661 |  erot = 7.55875733481404 | epot = -63.2387732679031 | etot = -48.4966723760229
606000  ekin = 6.82339792279328 |  erot = 7.77079572205791 | epot = -63.0908660164625 | etot = -48.4966723716113
607000  ekin = 6.78106761295614 |  erot = 8.02640715106706 | epot = -63.3041471354888 | etot = -48.4966723714656
608000  ekin = 7.06650520944012 |  erot = 8.3192592952442 | epot = -63.8824368788403 | etot = -48.496672374156
609000  ekin = 7.64869014779743 |  erot = 8.6406373788333 | epot = -64.7859999055967 | etot = -48.496672378966
610000  ekin = 8.45880674200583 |  erot = 8.97898134768454 | epot = -65.9344604774171 | etot = -48.4966723877267
611000  ekin = 9.40012632080192 |  erot = 9.32028280862221 | epot = -67.217081524585 | etot = -48.4966723951608
612000  ekin = 10.3724864441687 |  erot = 9.65110388611136 | epot = -68.5202627333384 | etot = -48.4966724030584
613000  ekin = 11.2738822446333 |  erot = 9.95564408214863 | epot = -69.7261987373838 | etot = -48.4966724106019
614000  ekin = 12.0134738011385 |  erot = 10.2166935701327 | epot = -70.7268397870544 | etot = -48.4966724157832
615000  ekin = 12.5325228236229 |  erot = 10.4217069667995 | epot = -71.4509022073661 | etot = -48.4966724169437
616000  ekin = 12.8258294711742 |  erot = 10.5664745453236 | epot = -71.8889764296864 | etot = -48.4966724131886
617000  ekin = 12.9484167494814 |  erot = 10.6576196901356 | epot = -72.1027088453536 | etot = -48.4966724057366
618000  ekin = 12.9984754659987 |  erot = 10.7112673341985 | epot = -72.2064151974844 | etot = -48.4966723972873
619000  ekin = 13.0833633892147 |  erot = 10.7483523556818 | epot = -72.3283881358956 | etot = -48.496672390999
620000  ekin = 13.2805224346584 |  erot = 10.7880868966423 | epot = -72.5652817201443 | etot = -48.4966723888435
621000  ekin = 13.6153158270739 |  erot = 10.8424788949145 | epot = -72.9544671128257 | etot = -48.4966723908374
622000  ekin = 14.0617052045582 |  erot = 10.9128304449191 | epot = -73.4712080456116 | etot = -48.4966723961343
623000  ekin = 14.556252452378 |  erot = 10.9888554748053 | epot = -74.0417803305448 | etot = -48.4966724033616
624000  ekin = 15.018496648041 |  erot = 11.0501520933641 | epot = -74.5653211519644 | etot = -48.4966724105593
625000  ekin = 15.3740067441767 |  erot = 11.0719318061378 | epot = -74.9426109654562 | etot = -48.4966724151417
626000  ekin = 15.5799785500923 |  erot = 11.0340258807632 | epot = -75.1106768463661 | etot = -48.4966724155106
627000  ekin = 15.6387406868719 |  erot = 10.9274345484232 | epot = -75.0628476476611 | etot = -48.4966724123659
628000  ekin = 15.5850466430299 |  erot = 10.7544368612206 | epot = -74.8361559131077 | etot = -48.4966724088572
629000  ekin = 15.4527585940832 |  erot = 10.522207406851 | epot = -74.4716384084359 | etot = -48.4966724075017
630000  ekin = 15.2487640712979 |  erot = 10.2369904052661 | epot = -73.9824268848782 | etot = -48.4966724083142
631000  ekin = 14.9546308598375 |  erot = 9.90350592612572 | epot = -73.3548091954711 | etot = -48.4966724095079
632000  ekin = 14.547129716756 |  erot = 9.52778248756418 | epot = -72.5715846136204 | etot = -48.4966724093002
633000  ekin = 14.0259983537144 |  erot = 9.11935081546343 | epot = -71.6420215736256 | etot = -48.4966724044478
634000  ekin = 13.4348934488061 |  erot = 8.69195919083728 | epot = -70.6235250389771 | etot = -48.4966723993338
635000  ekin = 12.8248958276184 |  erot = 8.26734491144593 | epot = -69.5889131330284 | etot = -48.4966723939641
636000  ekin = 12.2634798858414 |  erot = 7.86620866044666 | epot = -68.626360933542 | etot = -48.4966723872539
637000  ekin = 11.8378305091723 |  erot = 7.50870022728949 | epot = -67.8432031168786 | etot = -48.4966723804168
638000  ekin = 11.6379266195235 |  erot = 7.21309192660571 | epot = -67.3476909220265 | etot = -48.4966723758973
639000  ekin = 11.7309756692093 |  erot = 6.99358509588275 | epot = -67.2212331386558 | etot = -48.4966723735637
640000  ekin = 12.1483860992715 |  erot = 6.85513197123969 | epot = -67.5001904465222 | etot = -48.4966723760111
641000  ekin = 12.8580389630697 |  erot = 6.79197676461376 | epot = -68.1466881105293 | etot = -48.4966723828458
642000  ekin = 13.7676241865154 |  erot = 6.78663459553181 | epot = -69.0509311759966 | etot = -48.4966723939493
643000  ekin = 14.7311148046681 |  erot = 6.81269225388615 | epot = -70.0404794653713 | etot = -48.4966724068171
644000  ekin = 15.5770857379563 |  erot = 6.83998967567401 | epot = -70.9137478319275 | etot = -48.4966724182971
645000  ekin = 16.1508405485279 |  erot = 6.84150218313766 | epot = -71.4890151571032 | etot = -48.4966724254376
646000  ekin = 16.3517339377329 |  erot = 6.79972807950025 | epot = -71.6481344440653 | etot = -48.4966724268321
647000  ekin = 16.1521813975018 |  erot = 6.71011075274346 | epot = -71.3589645731008 | etot = -48.4966724228556
648000  ekin = 15.5941452914598 |  erot = 6.58036041650442 | epot = -70.6711781231518 | etot = -48.4966724151876
649000  ekin = 14.7689091850547 |  erot = 6.42695236572672 | epot = -69.6925339567898 | etot = -48.4966724060083
650000  ekin = 13.7897851521797 |  erot = 6.27009414207242 | epot = -68.5565516914931 | etot = -48.4966723972409
651000  ekin = 12.7827854663891 |  erot = 6.12965793183641 | epot = -67.4091157839162 | etot = -48.4966723856907
652000  ekin = 11.8480628892561 |  erot = 6.02011822008534 | epot = -66.3648534921808 | etot = -48.4966723828394
653000  ekin = 11.0202985972899 |  erot = 5.94865375227024 | epot = -65.4656247315557 | etot = -48.4966723819956
654000  ekin = 10.3091031180526 |  erot = 5.91728137268133 | epot = -64.7230568732293 | etot = -48.4966723824954
[...]
838000  ekin = 8.42094145785789 |  erot = 9.94835266832126 | epot = -66.865966425615 | etot = -48.4966722994359
839000  ekin = 8.20536768140436 |  erot = 10.0122432403032 | epot = -66.7142832241008 | etot = -48.4966723023932
840000  ekin = 8.10932302123015 |  erot = 10.1009175363717 | epot = -66.70691286293 | etot = -48.4966723053281
841000  ekin = 8.09432718602558 |  erot = 10.2103111787641 | epot = -66.8013106728465 | etot = -48.4966723080568
842000  ekin = 8.12447284781132 |  erot = 10.3366191342196 | epot = -66.9577642922183 | etot = -48.4966723101874
843000  ekin = 8.17242564709401 |  erot = 10.4770425717756 | epot = -67.1461405303715 | etot = -48.4966723115019
844000  ekin = 8.22381294677789 |  erot = 10.6297921513165 | epot = -67.3502774100041 | etot = -48.4966723119097
845000  ekin = 8.27955126990929 |  erot = 10.793656967074 | epot = -67.5698805485609 | etot = -48.4966723115776
846000  ekin = 8.35455925127631 |  erot = 10.9672036705246 | epot = -67.8184352327505 | etot = -48.4966723109496
847000  ekin = 8.47238635507935 |  erot = 11.1476305367521 | epot = -68.1166892023697 | etot = -48.4966723105382
848000  ekin = 8.65810273178235 |  erot = 11.3297217910841 | epot = -68.4844968333975 | etot = -48.496672310531
849000  ekin = 8.93290208349669 |  erot = 11.5057838953719 | epot = -68.9353582899566 | etot = -48.496672311088
850000  ekin = 9.30778062529526 |  erot = 11.666736738251 | epot = -69.4711896761239 | etot = -48.4966723125777
851000  ekin = 9.77385593043295 |  erot = 11.803628917525 | epot = -70.0741571637313 | etot = -48.4966723157734
852000  ekin = 10.2902091182382 |  erot = 11.908016347725 | epot = -70.6948977873228 | etot = -48.4966723213595
853000  ekin = 10.7774710913164 |  erot = 11.9704639286061 | epot = -71.2446073489316 | etot = -48.4966723290091
854000  ekin = 11.1286098516754 |  erot = 11.9790690579562 | epot = -71.6043512461383 | etot = -48.4966723365067
855000  ekin = 11.2404537248387 |  erot = 11.9198426894014 | epot = -71.6569687557004 | etot = -48.4966723414604
856000  ekin = 11.0533273930359 |  erot = 11.7779965332327 | epot = -71.3279962672347 | etot = -48.4966723409661
857000  ekin = 10.5849568300346 |  erot = 11.5448386346405 | epot = -70.6264677988101 | etot = -48.496672334135
858000  ekin = 9.93782549727743 |  erot = 11.2226264167445 | epot = -69.6571242366035 | etot = -48.4966723225816
859000  ekin = 9.27338883901059 |  erot = 10.8254282726678 | epot = -68.5954894215165 | etot = -48.4966723098382
860000  ekin = 8.76267013921014 |  erot = 10.3757646954861 | epot = -67.63510713435 | etot = -48.4966722996538
861000  ekin = 8.53556496673918 |  erot = 9.89928978905163 | epot = -66.9315270500786 | etot = -48.4966722942878
862000  ekin = 8.65070986882954 |  erot = 9.42036720017984 | epot = -66.5677493629028 | etot = -48.4966722938934
863000  ekin = 9.09319445693475 |  erot = 8.96001366100959 | epot = -66.5498804151066 | etot = -48.4966722971622
864000  ekin = 9.7933157211323 |  erot = 8.53570874312488 | epot = -66.8256967665897 | etot = -48.4966723023325
865000  ekin = 10.6528659459676 |  erot = 8.16193374961082 | epot = -67.311472003432 | etot = -48.4966723078536
866000  ekin = 11.5706394672347 |  erot = 7.85082867609459 | epot = -67.9181404545163 | etot = -48.496672311187
867000  ekin = 12.4665855116872 |  erot = 7.61306293968093 | epot = -68.5763207657674 | etot = -48.4966723143994
868000  ekin = 13.2806731202851 |  erot = 7.45693596481055 | epot = -69.2342814009962 | etot = -48.4966723159005
869000  ekin = 13.9812766418922 |  erot = 7.38865717267746 | epot = -69.8666061307286 | etot = -48.4966723161589
870000  ekin = 14.5601728136018 |  erot = 7.41145610259165 | epot = -70.4683012325735 | etot = -48.4966723163801
871000  ekin = 15.0180932114335 |  erot = 7.52387391605934 | epot = -71.0386394455296 | etot = -48.4966723180368
872000  ekin = 15.3437544395394 |  erot = 7.71754298557677 | epot = -71.5579697474339 | etot = -48.4966723223178
873000  ekin = 15.4947478897654 |  erot = 7.97535948669382 | epot = -71.9667797050653 | etot = -48.4966723286061
874000  ekin = 15.4072022302464 |  erot = 8.27349566802284 | epot = -72.1773702331987 | etot = -48.4966723349295
875000  ekin = 15.020282087552 |  erot = 8.5858461188835 | epot = -72.1028005449296 | etot = -48.4966723384941
876000  ekin = 14.3103753080398 |  erot = 8.89001531455403 | epot = -71.6970629596802 | etot = -48.4966723370864
877000  ekin = 13.3177867551939 |  erot = 9.17198109448599 | epot = -70.9864401801034 | etot = -48.4966723304235
878000  ekin = 12.1489812374504 |  erot = 9.42690023072813 | epot = -70.0725537888734 | etot = -48.496672320695
879000  ekin = 10.9478679171016 |  erot = 9.65570814793447 | epot = -69.1002483766163 | etot = -48.4966723115802
880000  ekin = 9.84816823416081 |  erot = 9.86012585877836 | epot = -68.204966398963 | etot = -48.4966723060238
881000  ekin = 8.93418864990817 |  erot = 10.0399671444749 | epot = -67.4708280988339 | etot = -48.4966723044508
882000  ekin = 8.23233878650534 |  erot = 10.1944686102384 | epot = -66.9234797018908 | etot = -48.496672305147
883000  ekin = 7.73079373988868 |  erot = 10.3254556489467 | epot = -66.5529216945055 | etot = -48.4966723056701
884000  ekin = 7.40639355090491 |  erot = 10.4389581938533 | epot = -66.3420240518599 | etot = -48.4966723071016
885000  ekin = 7.23012884055274 |  erot = 10.5425263254245 | epot = -66.2693274743103 | etot = -48.496672308333
886000  ekin = 7.17188160916117 |  erot = 10.6423872897565 | epot = -66.3109412085864 | etot = -48.4966723096687
887000  ekin = 7.20359993911794 |  erot = 10.7423767438456 | epot = -66.4426489939277 | etot = -48.4966723109641
888000  ekin = 7.3008339005647 |  erot = 10.844481514767 | epot = -66.6419877272111 | etot = -48.4966723118794
889000  ekin = 7.44584662910727 |  erot = 10.9502816357148 | epot = -66.8928005771513 | etot = -48.4966723123292
890000  ekin = 7.62600693983358 |  erot = 11.0610746464184 | epot = -67.183753900014 | etot = -48.496672313762
891000  ekin = 7.81873874077521 |  erot = 11.1753311196149 | epot = -67.4907421775765 | etot = -48.4966723171865
892000  ekin = 7.97874969203131 |  erot = 11.2859136973339 | epot = -67.7613357118397 | etot = -48.4966723224745
893000  ekin = 8.03989395052166 |  erot = 11.3794214307754 | epot = -67.9159877094881 | etot = -48.4966723281911
894000  ekin = 7.93829359423494 |  erot = 11.4397930633369 | epot = -67.8747589894125 | etot = -48.4966723318406
895000  ekin = 7.64207854961983 |  erot = 11.4549096577307 | epot = -67.5936605301395 | etot = -48.496672322789
896000  ekin = 7.25994289807453 |  erot = 11.4314794332073 | epot = -67.1880946513204 | etot = -48.4966723200386
897000  ekin = 6.87440345816701 |  erot = 11.3807194365943 | epot = -66.7517952098531 | etot = -48.4966723150918
898000  ekin = 6.54072238181086 |  erot = 11.3170504962089 | epot = -66.3544451880312 | etot = -48.4966723100114
899000  ekin = 6.31497972688681 |  erot = 11.2562721790707 | epot = -66.0679242125989 | etot = -48.4966723066414
900000  ekin = 6.23427080246228 |  erot = 11.2089558207847 | epot = -65.9398989291061 | etot = -48.4966723058591
901000  ekin = 6.30716786548202 |  erot = 11.1769913001256 | epot = -65.9808314730563 | etot = -48.4966723074487
902000  ekin = 6.51603863955305 |  erot = 11.154074599349 | epot = -66.1667855493152 | etot = -48.4966723104132
903000  ekin = 6.82764115133014 |  erot = 11.1292357622935 | epot = -66.4535492271762 | etot = -48.4966723135526
904000  ekin = 7.20594581624313 |  erot = 11.0915307936193 | epot = -66.7941489258172 | etot = -48.4966723159547
905000  ekin = 7.62139055456395 |  erot = 11.033852994328 | epot = -67.1519158662828 | etot = -48.4966723173909
906000  ekin = 8.05314401629683 |  erot = 10.9545483962749 | epot = -67.5043647307247 | etot = -48.496672318153
907000  ekin = 8.48596871279745 |  erot = 10.8568809777954 | epot = -67.8395220092564 | etot = -48.4966723186636
908000  ekin = 8.90584093635599 |  erot = 10.7475317196687 | epot = -68.1500449751982 | etot = -48.4966723191735
909000  ekin = 9.29811876691742 |  erot = 10.6353835923333 | epot = -68.4301746787247 | etot = -48.496672319474
910000  ekin = 9.64930057905999 |  erot = 10.5309201119549 | epot = -68.6768930105894 | etot = -48.4966723195746
911000  ekin = 9.94798520811002 |  erot = 10.4454281269842 | epot = -68.8900856546823 | etot = -48.4966723195881
912000  ekin = 10.1842847298188 |  erot = 10.3896169172268 | epot = -69.0705739669817 | etot = -48.4966723199361
913000  ekin = 10.3464242469511 |  erot = 10.3715034496002 | epot = -69.2146000176324 | etot = -48.496672321081
914000  ekin = 10.4159486693407 |  erot = 10.3940912355967 | epot = -69.3067122283896 | etot = -48.4966723234522
915000  ekin = 10.3649219616563 |  erot = 10.4538252077872 | epot = -69.3154194960979 | etot = -48.4966723266544
916000  ekin = 10.1612630557228 |  erot = 10.5413791274294 | epot = -69.1993145126158 | etot = -48.4966723294636
917000  ekin = 9.79071145959976 |  erot = 10.6444144950313 | epot = -68.9317982852138 | etot = -48.4966723305828
918000  ekin = 9.26089495024385 |  erot = 10.7518360028443 | epot = -68.5094032815369 | etot = -48.4966723284488
919000  ekin = 8.61736183697541 |  erot = 10.8585966353151 | epot = -67.9726307942685 | etot = -48.496672321978
920000  ekin = 7.960592423832 |  erot = 10.9667865218873 | epot = -67.4240512587293 | etot = -48.49667231301
921000  ekin = 7.42062866227316 |  erot = 11.0831224393678 | epot = -67.0004234065977 | etot = -48.4966723049568
922000  ekin = 7.11192604105524 |  erot = 11.2138650620762 | epot = -66.8224634046693 | etot = -48.4966723015379
923000  ekin = 7.08988024372464 |  erot = 11.3600862491813 | epot = -66.9466387955638 | etot = -48.4966723026578
924000  ekin = 7.3369145124533 |  erot = 11.5138164843743 | epot = -67.3474033088181 | etot = -48.4966723119905
925000  ekin = 7.75066984188946 |  erot = 11.655258581378 | epot = -67.9026007452187 | etot = -48.4966723219513
926000  ekin = 8.19653351332083 |  erot = 11.7619530766489 | epot = -68.4551589212644 | etot = -48.4966723312947
927000  ekin = 8.54738330200464 |  erot = 11.8134968285135 | epot = -68.8575524683499 | etot = -48.4966723378318
928000  ekin = 8.7114522815687 |  erot = 11.7955386607747 | epot = -69.0036632827902 | etot = -48.4966723404467
929000  ekin = 8.64121812446286 |  erot = 11.7025442525602 | epot = -68.8404347167088 | etot = -48.4966723396857
930000  ekin = 8.33447879710539 |  erot = 11.5389737707734 | epot = -68.37012490296 | etot = -48.4966723350812
931000  ekin = 7.84128687589663 |  erot = 11.3199153584986 | epot = -67.6578745623323 | etot = -48.4966723279371
932000  ekin = 7.24436701824092 |  erot = 11.0677318760972 | epot = -66.808771214162 | etot = -48.4966723198239
933000  ekin = 6.63984713293964 |  erot = 10.8074687729626 | epot = -65.9439882182493 | etot = -48.4966723123471
934000  ekin = 6.11754592743641 |  erot = 10.562155285853 | epot = -65.1763735200466 | etot = -48.4966723067572
935000  ekin = 5.74541765208514 |  erot = 10.3493855101797 | epot = -64.5914754658059 | etot = -48.4966723035411
936000  ekin = 5.56181702010004 |  erot = 10.1798783899936 | epot = -64.2383677129281 | etot = -48.4966723028344
937000  ekin = 5.57387639959003 |  erot = 10.0571518035586 | epot = -64.1277005074155 | etot = -48.4966723042669
938000  ekin = 5.76140455798841 |  erot = 9.97823911718158 | epot = -64.2363159825212 | etot = -48.4966723073513
939000  ekin = 6.08318988187015 |  erot = 9.93455888205192 | epot = -64.5144210757297 | etot = -48.4966723118076
940000  ekin = 6.48293885196444 |  erot = 9.91175572382925 | epot = -64.8913668931075 | etot = -48.4966723173138
941000  ekin = 6.89458666997208 |  erot = 9.89006577351703 | epot = -65.2813247669559 | etot = -48.4966723234668
942000  ekin = 7.2486944355277 |  erot = 9.84545861958821 | epot = -65.5908253846521 | etot = -48.4966723295362
943000  ekin = 7.48274008343474 |  erot = 9.75224430296131 | epot = -65.7316567205701 | etot = -48.4966723341741
944000  ekin = 7.55661078533879 |  erot = 9.58809869910802 | epot = -65.6413818201918 | etot = -48.4966723357449
945000  ekin = 7.47011756447702 |  erot = 9.34043579000354 | epot = -65.3072256875426 | etot = -48.4966723330621
946000  ekin = 7.27386532393023 |  erot = 9.01155536740148 | epot = -64.7820930176476 | etot = -48.4966723263159
947000  ekin = 7.06319369951645 |  erot = 8.61969480839796 | epot = -64.1795608255041 | etot = -48.4966723175897
948000  ekin = 6.95249218989918 |  erot = 8.19479074985818 | epot = -63.6439552491437 | etot = -48.4966723093864
949000  ekin = 7.04165184664145 |  erot = 7.77196767251195 | epot = -63.3102918235719 | etot = -48.4966723044185
950000  ekin = 7.38393234888728 |  erot = 7.3821586336959 | epot = -63.2627632862235 | etot = -48.4966723036403
951000  ekin = 7.97686792797439 |  erot = 7.0449001183095 | epot = -63.5184403525975 | etot = -48.4966723063136
952000  ekin = 8.77198923638851 |  erot = 6.76886819893867 | epot = -64.0375297466744 | etot = -48.4966723113472
953000  ekin = 9.68951090202451 |  erot = 6.5531820884397 | epot = -64.7393653089362 | etot = -48.496672318472
954000  ekin = 10.6255451768237 |  erot = 6.39139134809485 | epot = -65.5136088512583 | etot = -48.4966723263398
955000  ekin = 11.4591959808679 |  erot = 6.27379828151817 | epot = -66.2296665968114 | etot = -48.4966723344253
956000  ekin = 12.0705908744442 |  erot = 6.18965545255523 | epot = -66.7569186683934 | etot = -48.496672341394
957000  ekin = 12.357805755638 |  erot = 6.13109121099042 | epot = -66.9855693119213 | etot = -48.4966723452929
958000  ekin = 12.2639561636367 |  erot = 6.09526076104504 | epot = -66.8558892689842 | etot = -48.4966723443025
959000  ekin = 11.8028932806644 |  erot = 6.08530913450389 | epot = -66.3848747524983 | etot = -48.49667233733
960000  ekin = 11.0657748719498 |  erot = 6.1096127289121 | epot = -65.6720599277992 | etot = -48.4966723269373
961000  ekin = 10.1976851856276 |  erot = 6.17940626324497 | epot = -64.8737637642415 | etot = -48.496672315369
962000  ekin = 9.36006055963928 |  erot = 6.3057643468877 | epot = -64.1624972127814 | etot = -48.4966723062545
963000  ekin = 8.68052625353317 |  erot = 6.49616547418582 | epot = -63.6733640299158 | etot = -48.4966723021968
964000  ekin = 8.21670813042391 |  erot = 6.75219994018939 | epot = -63.4655803741382 | etot = -48.4966723035249
965000  ekin = 7.95112951705666 |  erot = 7.0693397845059 | epot = -63.5171416099239 | etot = -48.4966723083613
966000  ekin = 7.81882046064005 |  erot = 7.43840285372323 | epot = -63.7538956280868 | etot = -48.4966723137235
967000  ekin = 7.74912903282096 |  erot = 7.84702228540834 | epot = -64.0928236368408 | etot = -48.4966723186115
968000  ekin = 7.67539244847966 |  erot = 8.28177833384752 | epot = -64.4538431041449 | etot = -48.4966723218177
969000  ekin = 7.55990272807939 |  erot = 8.72822682325503 | epot = -64.7848018749276 | etot = -48.4966723235932
970000  ekin = 7.38809514649922 |  erot = 9.1706253313709 | epot = -65.0553928029735 | etot = -48.4966723251033
971000  ekin = 7.15239238853213 |  erot = 9.59185822108274 | epot = -65.2409229360584 | etot = -48.4966723264435
972000  ekin = 6.85180495760655 |  erot = 9.97461998865473 | epot = -65.3230972734686 | etot = -48.4966723272073
973000  ekin = 6.49404712956877 |  erot = 10.3038859965663 | epot = -65.2946054529207 | etot = -48.4966723267856
974000  ekin = 6.10144997057115 |  erot = 10.5696876859589 | epot = -65.1678099809188 | etot = -48.4966723243888
975000  ekin = 5.71827862614289 |  erot = 10.7680923482962 | epot = -64.983043295066 | etot = -48.496672320627
976000  ekin = 5.40201312001461 |  erot = 10.9003005386331 | epot = -64.7989859752966 | etot = -48.4966723166489
977000  ekin = 5.20833587945272 |  erot = 10.9708214128511 | epot = -64.6758296064297 | etot = -48.4966723141259
978000  ekin = 5.16924581877216 |  erot = 10.9846732086891 | epot = -64.6505913417397 | etot = -48.4966723142784
979000  ekin = 5.27779877961601 |  erot = 10.9455170801745 | epot = -64.7199881765139 | etot = -48.4966723167234
980000  ekin = 5.49322046392839 |  erot = 10.8569988024341 | epot = -64.8468915861287 | etot = -48.4966723197663
981000  ekin = 5.76179864848524 |  erot = 10.7265177170517 | epot = -64.9849886868652 | etot = -48.4966723213283
982000  ekin = 6.04348591193837 |  erot = 10.5685834918819 | epot = -65.1087417241204 | etot = -48.4966723203001
983000  ekin = 6.32848466769782 |  erot = 10.4050435741554 | epot = -65.2302005588463 | etot = -48.4966723169931
984000  ekin = 6.63689938354832 |  erot = 10.2617391989834 | epot = -65.3953108952509 | etot = -48.4966723127193
985000  ekin = 7.00519513595567 |  erot = 10.1634367418766 | epot = -65.6653041868531 | etot = -48.4966723090209
986000  ekin = 7.46792966204621 |  erot = 10.1293593715802 | epot = -66.0939613407506 | etot = -48.4966723071242
987000  ekin = 8.04175239449411 |  erot = 10.1705679719626 | epot = -66.7089926741833 | etot = -48.4966723077267
988000  ekin = 8.71523238432426 |  erot = 10.2892285328451 | epot = -67.5011332281616 | etot = -48.4966723109923
989000  ekin = 9.4455555532655 |  erot = 10.4792258343988 | epot = -68.4214537073504 | etot = -48.4966723196861
990000  ekin = 10.1473148644204 |  erot = 10.7224787032524 | epot = -69.3664658952697 | etot = -48.4966723275969
991000  ekin = 10.7156853180426 |  erot = 10.9958515538611 | epot = -70.2082092074686 | etot = -48.4966723355649
992000  ekin = 11.0552138410607 |  erot = 11.2781950436635 | epot = -70.8300812264331 | etot = -48.4966723417089
993000  ekin = 11.095205846176 |  erot = 11.5520851593861 | epot = -71.1439633497668 | etot = -48.4966723442048
994000  ekin = 10.811561084176 |  erot = 11.8083197851211 | epot = -71.1165532113593 | etot = -48.4966723420623
995000  ekin = 10.2380910332888 |  erot = 12.0483836019117 | epot = -70.7831469708953 | etot = -48.4966723356948
996000  ekin = 9.46083676390613 |  erot = 12.2834739246157 | epot = -70.2409830153481 | etot = -48.4966723268263
997000  ekin = 8.59669858913239 |  erot = 12.5302960474209 | epot = -69.6236669542962 | etot = -48.4966723177429
998000  ekin = 7.76544232687644 |  erot = 12.8061283134402 | epot = -69.0682429505866 | etot = -48.49667231027
999000  ekin = 7.06575291771959 |  erot = 13.1250004185656 | epot = -68.6874256417902 | etot = -48.496672305505
1000000  ekin = 6.56133018839377 |  erot = 13.4950387027555 | epot = -68.5530411948771 | etot = -48.4966723037278
   1000000   244.5767      -69.23317       0.68012891    -61.991711     -0.012778323    39304000     
Loop time of 12.907 on 1 procs for 1000000 steps with 10 atoms

Performance: 114.200 ns/day, 0.210 hours/ns, 77477.272 timesteps/s, 774.773 katom-step/s
99.1% CPU use with 1 MPI tasks x no OpenMP threads

MPI task timing breakdown:
Section |  min time  |  avg time  |  max time  |%varavg| %total
---------------------------------------------------------------
Pair    | 10.441     | 10.441     | 10.441     |   0.0 | 80.89
Bond    | 0.62144    | 0.62144    | 0.62144    |   0.0 |  4.81
Neigh   | 0.006403   | 0.006403   | 0.006403   |   0.0 |  0.05
Comm    | 0.30041    | 0.30041    | 0.30041    |   0.0 |  2.33
Output  | 0.099868   | 0.099868   | 0.099868   |   0.0 |  0.77
Modify  | 1.1148     | 1.1148     | 1.1148     |   0.0 |  8.64
Other   |            | 0.3234     |            |       |  2.51

Nlocal:             10 ave          10 max          10 min
Histogram: 1 0 0 0 0 0 0 0 0 0
Nghost:              0 ave           0 max           0 min
Histogram: 1 0 0 0 0 0 0 0 0 0
Neighs:             37 ave          37 max          37 min
Histogram: 1 0 0 0 0 0 0 0 0 0

Total # of neighbors = 37
Ave neighs/atom = 3.7
Ave special neighs/atom = 3.6
Neighbor list builds = 1000
Dangerous builds = 0

write_data last_config.${number}.* nocoeff
write_data last_config.3.* nocoeff
System init for write_data ...
Generated 0 of 6 mixed pair_coeff terms from geometric mixing rule
#write_restart last_config.${number}.*
Total wall time: 0:00:12
