LAMMPS (2 Apr 2025)
# LAMMPS input file in real units via oxdna lj2real.py, date 2024-05-19
variable number	equal 3
variable ofreq	equal 1000
variable efreq	equal 1000
variable T      equal 300.0
variable rhos   equal 0.2

units real

dimension 3

newton on

boundary  p p p

atom_style hybrid bond ellipsoid oxdna
WARNING: Atom style hybrid defines both, per-type and per-atom masses; both must be set, but only per-atom masses will be used (../atom_vec_hybrid.cpp:132)
atom_modify sort 0 8.518

# Pair interactions require lists of neighbours to be calculated
neighbor 17.036 bin
neigh_modify every 1 delay 0 check yes

read_data data.duplex3
Reading data file ...
  orthogonal box = (-170 -170 -170) to (170 170 170)
  1 by 2 by 2 MPI processor grid
  reading atoms ...
  10 atoms
  reading velocities ...
  10 velocities
  scanning bonds ...
  1 = max bonds/atom
  10 ellipsoids
  orthogonal box = (-170 -170 -170) to (170 170 170)
  1 by 2 by 2 MPI processor grid
  reading bonds ...
  8 bonds
Finding 1-2 1-3 1-4 neighbors ...
  special bond factors lj:    0        0        0       
  special bond factors coul:  0        0        0       
     2 = max # of 1-2 neighbors
     2 = max # of 1-3 neighbors
     2 = max # of 1-4 neighbors
     4 = max # of special neighbors
  special bonds CPU = 0.001 seconds
  read_data CPU = 0.003 seconds

set atom * mass 100.0278
Setting atom values ...
  10 settings made for mass

group all type 1 4
10 atoms in group all

# oxDNA2 bond interactions - FENE backbone
bond_style oxdna2/fene
bond_coeff * 11.92337812042065 2.1295 6.4430152
special_bonds lj 0 1 1
Finding 1-2 1-3 1-4 neighbors ...
  special bond factors lj:    0        1        1       
  special bond factors coul:  0        0        0       
     2 = max # of 1-2 neighbors
     2 = max # of 1-3 neighbors
     2 = max # of 1-4 neighbors
     4 = max # of special neighbors
  special bonds CPU = 0.000 seconds

# oxDNA2 pair interactions
pair_style hybrid/overlay oxdna2/excv oxdna2/stk oxdna2/hbond oxdna2/xstk oxdna2/coaxstk oxdna2/dh
pair_coeff * * oxdna2/excv 11.92337812042065 5.9626 5.74965 11.92337812042065 4.38677 4.259 11.92337812042065 2.81094 2.72576
pair_coeff * * oxdna2/stk seqdep ${T} 8.06199211612242 0.005309213 0.70439070204273 3.4072 7.6662 2.72576 6.3885 1.3 0.0 0.8 0.9 0.0 0.95 0.9 0.0 0.95 2.0 0.65 2.0 0.65
pair_coeff * * oxdna2/stk seqdep 300 8.06199211612242 0.005309213 0.70439070204273 3.4072 7.6662 2.72576 6.3885 1.3 0.0 0.8 0.9 0.0 0.95 0.9 0.0 0.95 2.0 0.65 2.0 0.65
pair_coeff * * oxdna2/hbond seqdep 0.0 0.93918760272364 3.4072 6.3885 2.89612 5.9626 1.5 0.0 0.7 1.5 0 0.7 1.5 0 0.7 0.46 3.141592654 0.7 4.0 1.570796327 0.45 4.0 1.570796327 0.45
pair_coeff 1 4 oxdna2/hbond seqdep 6.36589157849259 0.93918760272364 3.4072 6.3885 2.89612 5.9626 1.5 0 0.7 1.5 0.0 0.7 1.5 0 0.7 0.46 3.141592654 0.7 4.0 1.570796327 0.45 4.0 1.570796327 0.45
pair_coeff 2 3 oxdna2/hbond seqdep 6.36589157849259 0.93918760272364 3.4072 6.3885 2.89612 5.9626 1.5 0 0.7 1.5 0.0 0.7 1.5 0 0.7 0.46 3.141592654 0.7 4.0 1.570796327 0.45 4.0 1.570796327 0.45
pair_coeff * * oxdna2/xstk 3.9029021145006 4.89785 5.74965 4.21641 5.57929 2.25 0.791592654 0.58 1.7 1.0 0.68 1.7 1.0 0.68 1.5 0 0.65 1.7 0.875 0.68 1.7 0.875 0.68
pair_coeff * * oxdna2/coaxstk 4.80673207785863 3.4072 5.1108 1.87396 4.94044 2.0 2.891592653589793 0.65 1.3 0 0.8 0.9 0 0.95 0.9 0 0.95 40.0 3.116592653589793
pair_coeff * * oxdna2/dh ${T} ${rhos} 0.815
pair_coeff * * oxdna2/dh 300 ${rhos} 0.815
pair_coeff * * oxdna2/dh 300 0.2 0.815

# NVE ensemble
fix 1 all nve/asphere
#fix 2 all langevin ${T} ${T} 4265.0 457145 angmom 10

timestep 0.01706

#comm_style tiled
fix 3 all balance 1000 1.03 shift xyz 10 1.03
comm_modify cutoff 32.4

compute quat all property/atom quatw quati quatj quatk

compute erot all erotate/asphere
compute ekin all ke
compute epot all pe
variable erot equal c_erot
variable ekin equal c_ekin
variable epot equal c_epot
variable etot equal c_erot+c_ekin+c_epot
fix 5 all print ${efreq} "$(step)  ekin = ${ekin} |  erot = ${erot} | epot = ${epot} | etot = ${etot}" screen yes
fix 5 all print 1000 "$(step)  ekin = ${ekin} |  erot = ${erot} | epot = ${epot} | etot = ${etot}" screen yes

dump out all custom ${ofreq} out.${number}.lammpstrj id mol type x y z ix iy iz vx vy vz c_quat[1] c_quat[2] c_quat[3] c_quat[4] angmomx angmomy angmomz
dump out all custom 1000 out.${number}.lammpstrj id mol type x y z ix iy iz vx vy vz c_quat[1] c_quat[2] c_quat[3] c_quat[4] angmomx angmomy angmomz
dump out all custom 1000 out.3.lammpstrj id mol type x y z ix iy iz vx vy vz c_quat[1] c_quat[2] c_quat[3] c_quat[4] angmomx angmomy angmomz
dump_modify out sort id
dump_modify out format line "%d %d %d  %22.15le %22.15le %22.15le  %d %d %d  %22.15le %22.15le %22.15le  %22.15le %22.15le %22.15le %22.15le  %22.15le %22.15le %22.15le"

run 1000000
Generated 0 of 6 mixed pair_coeff terms from geometric mixing rule
Neighbor list info ...
  update: every = 1 steps, delay = 0 steps, check = yes
  max neighbors/atom: 2000, page size: 100000
  master list distance cutoff = 48.032697
  ghost atom cutoff = 48.032697
  binsize = 24.016348, bins = 15 15 15
  5 neighbor lists, perpetual/occasional/extra = 5 0 0
  (1) pair oxdna2/excv, perpetual
      attributes: half, newton on
      pair build: half/bin/newton
      stencil: half/bin/3d
      bin: standard
  (2) pair oxdna2/hbond, perpetual, copy from (1)
      attributes: half, newton on
      pair build: copy
      stencil: none
      bin: none
  (3) pair oxdna2/xstk, perpetual, copy from (1)
      attributes: half, newton on
      pair build: copy
      stencil: none
      bin: none
  (4) pair oxdna2/coaxstk, perpetual, copy from (1)
      attributes: half, newton on
      pair build: copy
      stencil: none
      bin: none
  (5) pair oxdna2/dh, perpetual, copy from (1)
      attributes: half, newton on
      pair build: copy
      stencil: none
      bin: none
WARNING: Communication cutoff adjusted to 48.03269686950012 (../comm.cpp:753)
0  ekin = 7.03429942525144 |  erot = 12.9873344362494 | epot = -68.5183064451292 | etot = -48.4966725836283
Per MPI rank memory allocation (min/avg/max) = 7.505 | 7.506 | 7.507 Mbytes
   Step          Temp          E_pair         E_mol          TotEng         Press          Volume    
         0   262.20685     -73.084271      4.565965      -61.484007     -0.0051810598   39304000     
1000  ekin = 6.47818551117441 |  erot = 13.3026700489858 | epot = -68.2775281400722 | etot = -48.496672579912
2000  ekin = 6.03525112997234 |  erot = 13.6564943363021 | epot = -68.188418043353 | etot = -48.4966725770786
3000  ekin = 5.75105017872917 |  erot = 14.0429985067123 | epot = -68.2907212623775 | etot = -48.496672576936
4000  ekin = 5.63745048823597 |  erot = 14.4525304497378 | epot = -68.5866535170593 | etot = -48.4966725790856
5000  ekin = 5.67539108471601 |  erot = 14.8714892268938 | epot = -69.043552894502 | etot = -48.4966725828922
6000  ekin = 5.82255924081711 |  erot = 15.2845343223522 | epot = -69.6037661502109 | etot = -48.4966725870415
7000  ekin = 6.02949131445191 |  erot = 15.6780321266847 | epot = -70.2041960313094 | etot = -48.4966725901728
8000  ekin = 6.25690013504897 |  erot = 16.0432406183867 | epot = -70.7968133448979 | etot = -48.4966725914623
9000  ekin = 6.48760823849341 |  erot = 16.3777166841148 | epot = -71.3619975139177 | etot = -48.4966725913095
10000  ekin = 6.72254611001793 |  erot = 16.6826306715322 | epot = -71.9018493718512 | etot = -48.4966725903011
   10000   244.5767      -69.23317       0.68012891    -61.991711     -0.012778323    39304000     
Loop time of 12.2781 on 4 procs for 1000000 steps with 10 atoms

Performance: 120.050 ns/day, 0.200 hours/ns, 81445.689 timesteps/s, 814.457 katom-step/s
99.7% CPU use with 4 MPI tasks x no OpenMP threads

MPI task timing breakdown:
Section |  min time  |  avg time  |  max time  |%varavg| %total
---------------------------------------------------------------
Pair    | 3.2469     | 4.9515     | 7.0981     |  62.1 | 40.33
Bond    | 0.1954     | 0.25049    | 0.29531    |   8.8 |  2.04
Neigh   | 0.004031   | 0.0040985  | 0.00415    |   0.1 |  0.03
Comm    | 2.8164     | 5.2593     | 6.993      |  66.2 | 42.83
Output  | 0.0667     | 0.070533   | 0.078394   |   1.7 |  0.57
Modify  | 0.43406    | 0.47672    | 0.51187    |   5.0 |  3.88
Other   |            | 1.265      |            |       | 10.31

Nlocal:            2.5 ave           3 max           2 min
Histogram: 2 0 0 0 0 0 0 0 0 2
Nghost:            7.5 ave           8 max           7 min
Histogram: 2 0 0 0 0 0 0 0 0 2
Neighs:           9.25 ave          16 max           2 min
Histogram: 1 0 1 0 0 0 0 0 1 1

Total # of neighbors = 37
Ave neighs/atom = 3.7
Ave special neighs/atom = 3.6
Neighbor list builds = 1000
Dangerous builds = 0

write_data last_config.${number}.* nocoeff
write_data last_config.3.* nocoeff
System init for write_data ...
Generated 0 of 6 mixed pair_coeff terms from geometric mixing rule
#write_restart last_config.${number}.*
Total wall time: 0:00:12
