LAMMPS (2 Apr 2025)
# LAMMPS input file in real units via oxdna lj2real.py, date 2024-05-19
variable number	equal 3
variable ofreq	equal 1000
variable efreq	equal 1000
variable T      equal 300.0
variable rhos   equal 0.2

units real

dimension 3

newton on

boundary  p p p

atom_style hybrid bond ellipsoid oxdna
WARNING: Atom style hybrid defines both, per-type and per-atom masses; both must be set, but only per-atom masses will be used (../atom_vec_hybrid.cpp:132)
atom_modify sort 0 8.518

# Pair interactions require lists of neighbours to be calculated
neighbor 17.036 bin
neigh_modify every 1 delay 0 check yes

read_data data.duplex3
Reading data file ...
  orthogonal box = (-170 -170 -170) to (170 170 170)
  1 by 2 by 2 MPI processor grid
  reading atoms ...
  10 atoms
  reading velocities ...
  10 velocities
  scanning bonds ...
  1 = max bonds/atom
  10 ellipsoids
  orthogonal box = (-170 -170 -170) to (170 170 170)
  1 by 2 by 2 MPI processor grid
  reading bonds ...
  8 bonds
Finding 1-2 1-3 1-4 neighbors ...
  special bond factors lj:    0        0        0       
  special bond factors coul:  0        0        0       
     2 = max # of 1-2 neighbors
     2 = max # of 1-3 neighbors
     2 = max # of 1-4 neighbors
     4 = max # of special neighbors
  special bonds CPU = 0.001 seconds
  read_data CPU = 0.003 seconds

set atom * mass 100.0278
Setting atom values ...
  10 settings made for mass

group all type 1 4
10 atoms in group all

# oxDNA2 bond interactions - FENE backbone
bond_style oxdna2/fene
bond_coeff * 11.92337812042065 2.1295 6.4430152
special_bonds lj 0 1 1
Finding 1-2 1-3 1-4 neighbors ...
  special bond factors lj:    0        1        1       
  special bond factors coul:  0        0        0       
     2 = max # of 1-2 neighbors
     2 = max # of 1-3 neighbors
     2 = max # of 1-4 neighbors
     4 = max # of special neighbors
  special bonds CPU = 0.000 seconds

# oxDNA2 pair interactions
pair_style hybrid/overlay oxdna2/excv oxdna2/stk oxdna2/hbond oxdna2/xstk oxdna2/coaxstk oxdna2/dh
pair_coeff * * oxdna2/excv 11.92337812042065 5.9626 5.74965 11.92337812042065 4.38677 4.259 11.92337812042065 2.81094 2.72576
pair_coeff * * oxdna2/stk seqdep ${T} 8.06199211612242 0.005309213 0.70439070204273 3.4072 7.6662 2.72576 6.3885 1.3 0.0 0.8 0.9 0.0 0.95 0.9 0.0 0.95 2.0 0.65 2.0 0.65
pair_coeff * * oxdna2/stk seqdep 300 8.06199211612242 0.005309213 0.70439070204273 3.4072 7.6662 2.72576 6.3885 1.3 0.0 0.8 0.9 0.0 0.95 0.9 0.0 0.95 2.0 0.65 2.0 0.65
pair_coeff * * oxdna2/hbond seqdep 0.0 0.93918760272364 3.4072 6.3885 2.89612 5.9626 1.5 0.0 0.7 1.5 0 0.7 1.5 0 0.7 0.46 3.141592654 0.7 4.0 1.570796327 0.45 4.0 1.570796327 0.45
pair_coeff 1 4 oxdna2/hbond seqdep 6.36589157849259 0.93918760272364 3.4072 6.3885 2.89612 5.9626 1.5 0 0.7 1.5 0.0 0.7 1.5 0 0.7 0.46 3.141592654 0.7 4.0 1.570796327 0.45 4.0 1.570796327 0.45
pair_coeff 2 3 oxdna2/hbond seqdep 6.36589157849259 0.93918760272364 3.4072 6.3885 2.89612 5.9626 1.5 0 0.7 1.5 0.0 0.7 1.5 0 0.7 0.46 3.141592654 0.7 4.0 1.570796327 0.45 4.0 1.570796327 0.45
pair_coeff * * oxdna2/xstk 3.9029021145006 4.89785 5.74965 4.21641 5.57929 2.25 0.791592654 0.58 1.7 1.0 0.68 1.7 1.0 0.68 1.5 0 0.65 1.7 0.875 0.68 1.7 0.875 0.68
pair_coeff * * oxdna2/coaxstk 4.80673207785863 3.4072 5.1108 1.87396 4.94044 2.0 2.891592653589793 0.65 1.3 0 0.8 0.9 0 0.95 0.9 0 0.95 40.0 3.116592653589793
pair_coeff * * oxdna2/dh ${T} ${rhos} 0.815
pair_coeff * * oxdna2/dh 300 ${rhos} 0.815
pair_coeff * * oxdna2/dh 300 0.2 0.815

# NVE ensemble
fix 1 all nve/asphere
#fix 2 all langevin ${T} ${T} 4265.0 457145 angmom 10

timestep 0.01706

#comm_style tiled
fix 3 all balance 1000 1.03 shift xyz 10 1.03
comm_modify cutoff 32.4

compute quat all property/atom quatw quati quatj quatk

compute erot all erotate/asphere
compute ekin all ke
compute epot all pe
variable erot equal c_erot
variable ekin equal c_ekin
variable epot equal c_epot
variable etot equal c_erot+c_ekin+c_epot
fix 5 all print ${efreq} "$(step)  ekin = ${ekin} |  erot = ${erot} | epot = ${epot} | etot = ${etot}" screen yes
fix 5 all print 1000 "$(step)  ekin = ${ekin} |  erot = ${erot} | epot = ${epot} | etot = ${etot}" screen yes

dump out all custom ${ofreq} out.${number}.lammpstrj id mol type x y z ix iy iz vx vy vz c_quat[1] c_quat[2] c_quat[3] c_quat[4] angmomx angmomy angmomz
dump out all custom 1000 out.${number}.lammpstrj id mol type x y z ix iy iz vx vy vz c_quat[1] c_quat[2] c_quat[3] c_quat[4] angmomx angmomy angmomz
dump out all custom 1000 out.3.lammpstrj id mol type x y z ix iy iz vx vy vz c_quat[1] c_quat[2] c_quat[3] c_quat[4] angmomx angmomy angmomz
dump_modify out sort id
dump_modify out format line "%d %d %d  %22.15le %22.15le %22.15le  %d %d %d  %22.15le %22.15le %22.15le  %22.15le %22.15le %22.15le %22.15le  %22.15le %22.15le %22.15le"

run 1000000
Generated 0 of 6 mixed pair_coeff terms from geometric mixing rule
Neighbor list info ...
  update: every = 1 steps, delay = 0 steps, check = yes
  max neighbors/atom: 2000, page size: 100000
  master list distance cutoff = 48.032697
  ghost atom cutoff = 48.032697
  binsize = 24.016348, bins = 15 15 15
  5 neighbor lists, perpetual/occasional/extra = 5 0 0
  (1) pair oxdna2/excv, perpetual
      attributes: half, newton on
      pair build: half/bin/newton
      stencil: half/bin/3d
      bin: standard
  (2) pair oxdna2/hbond, perpetual, copy from (1)
      attributes: half, newton on
      pair build: copy
      stencil: none
      bin: none
  (3) pair oxdna2/xstk, perpetual, copy from (1)
      attributes: half, newton on
      pair build: copy
      stencil: none
      bin: none
  (4) pair oxdna2/coaxstk, perpetual, copy from (1)
      attributes: half, newton on
      pair build: copy
      stencil: none
      bin: none
  (5) pair oxdna2/dh, perpetual, copy from (1)
      attributes: half, newton on
      pair build: copy
      stencil: none
      bin: none
WARNING: Communication cutoff adjusted to 48.03269686950012 (../comm.cpp:753)
0  ekin = 7.03429942525144 |  erot = 12.9873344362494 | epot = -68.5183064451292 | etot = -48.4966725836283
Per MPI rank memory allocation (min/avg/max) = 7.505 | 7.506 | 7.507 Mbytes
   Step          Temp          E_pair         E_mol          TotEng         Press          Volume    
         0   262.20685     -73.084271      4.565965      -61.484007     -0.0051810598   39304000     
1000  ekin = 6.47818551117441 |  erot = 13.3026700489858 | epot = -68.2775281400722 | etot = -48.496672579912
2000  ekin = 6.03525112997234 |  erot = 13.6564943363021 | epot = -68.188418043353 | etot = -48.4966725770786
3000  ekin = 5.75105017872917 |  erot = 14.0429985067123 | epot = -68.2907212623775 | etot = -48.496672576936
4000  ekin = 5.63745048823597 |  erot = 14.4525304497378 | epot = -68.5866535170593 | etot = -48.4966725790856
5000  ekin = 5.67539108471601 |  erot = 14.8714892268938 | epot = -69.043552894502 | etot = -48.4966725828922
6000  ekin = 5.82255924081711 |  erot = 15.2845343223522 | epot = -69.6037661502109 | etot = -48.4966725870415
7000  ekin = 6.02949131445191 |  erot = 15.6780321266847 | epot = -70.2041960313094 | etot = -48.4966725901728
8000  ekin = 6.25690013504897 |  erot = 16.0432406183867 | epot = -70.7968133448979 | etot = -48.4966725914623
9000  ekin = 6.48760823849341 |  erot = 16.3777166841148 | epot = -71.3619975139177 | etot = -48.4966725913095
10000  ekin = 6.72254611001793 |  erot = 16.6826306715322 | epot = -71.9018493718512 | etot = -48.4966725903011
11000  ekin = 6.97475226170416 |  erot = 16.9603738277431 | epot = -72.4317986787939 | etot = -48.4966725893466
12000  ekin = 7.2596071399057 |  erot = 17.2117069445192 | epot = -72.9679866735631 | etot = -48.4966725891382
13000  ekin = 7.5861600155149 |  erot = 17.4338437184063 | epot = -73.5166763239119 | etot = -48.4966725899907
14000  ekin = 7.95221337497308 |  erot = 17.6199690400551 | epot = -74.0688550069349 | etot = -48.4966725919068
15000  ekin = 8.34290179280051 |  erot = 17.759930875729 | epot = -74.599505263303 | etot = -48.4966725947736
16000  ekin = 8.73088347798071 |  erot = 17.8412839163865 | epot = -75.0688399931314 | etot = -48.4966725987643
17000  ekin = 9.06872001929427 |  erot = 17.8482053032196 | epot = -75.4135979249309 | etot = -48.496672602417
18000  ekin = 9.30863890671841 |  erot = 17.7686584779304 | epot = -75.5739699900196 | etot = -48.4966726053708
19000  ekin = 9.4112478564752 |  erot = 17.5960512017223 | epot = -75.5039716652992 | etot = -48.4966726071017
20000  ekin = 9.34910582886844 |  erot = 17.3292516593875 | epot = -75.1750300954672 | etot = -48.4966726072113
21000  ekin = 9.11266896891001 |  erot = 16.9731252869533 | epot = -74.582466861365 | etot = -48.4966726055016
22000  ekin = 8.71397032422825 |  erot = 16.5385032889635 | epot = -73.74914621512 | etot = -48.4966726019283
23000  ekin = 8.18690962778294 |  erot = 16.0421750929966 | epot = -72.7257573178969 | etot = -48.4966725971173
24000  ekin = 7.58361736117548 |  erot = 15.5032978232031 | epot = -71.5835877759393 | etot = -48.4966725915608
25000  ekin = 6.96740991674919 |  erot = 14.9419969554432 | epot = -70.4060794581737 | etot = -48.4966725859812
26000  ekin = 6.40397973480537 |  erot = 14.3775943404745 | epot = -69.2782466563096 | etot = -48.4966725810297
27000  ekin = 5.95300264518475 |  erot = 13.826953398888 | epot = -68.2766286212091 | etot = -48.4966725771364
28000  ekin = 5.66210674320071 |  erot = 13.3035488276538 | epot = -67.4623281453091 | etot = -48.4966725744546
29000  ekin = 5.56416292853298 |  erot = 12.8173046943285 | epot = -66.8781401957637 | etot = -48.4966725729022
30000  ekin = 5.67757091398709 |  erot = 12.3750254271171 | epot = -66.5492689133858 | etot = -48.4966725722816
31000  ekin = 6.00823180422892 |  erot = 11.9813634428801 | epot = -66.4862678195165 | etot = -48.4966725724074
32000  ekin = 6.55166468997897 |  erot = 11.6395080908378 | epot = -66.6878453540163 | etot = -48.4966725731996
33000  ekin = 7.29417473532496 |  erot = 11.3509752571401 | epot = -67.1418225671859 | etot = -48.4966725747208
34000  ekin = 8.21244588218664 |  erot = 11.1161143134271 | epot = -67.8252327728442 | etot = -48.4966725772304
35000  ekin = 9.27066798181975 |  erot = 10.9338272642603 | epot = -68.7011678273407 | etot = -48.4966725812607
36000  ekin = 10.4137127998436 |  erot = 10.8011032352064 | epot = -69.7114886227785 | etot = -48.4966725877285
37000  ekin = 11.5574113355609 |  erot = 10.711877433406 | epot = -70.7659613658543 | etot = -48.4966725968874
38000  ekin = 12.5862131120546 |  erot = 10.6570487006396 | epot = -71.739934419643 | etot = -48.4966726069487
39000  ekin = 13.3756277697441 |  erot = 10.6266661696596 | epot = -72.4989665531956 | etot = -48.4966726137919
40000  ekin = 13.8400144974718 |  erot = 10.614944104086 | epot = -72.9516312154836 | etot = -48.4966726139259
41000  ekin = 13.9716515751516 |  erot = 10.6251303228018 | epot = -73.0934545058128 | etot = -48.4966726078594
42000  ekin = 13.8349966624032 |  erot = 10.6693591526023 | epot = -73.0010284144745 | etot = -48.496672599469
43000  ekin = 13.4863179745782 |  erot = 10.7627501491631 | epot = -72.7457409172258 | etot = -48.4966727934845
44000  ekin = 12.8657064139241 |  erot = 11.0065042177549 | epot = -72.3688833251117 | etot = -48.4966726934327
45000  ekin = 12.4513480708364 |  erot = 11.2623687140007 | epot = -72.2103894466172 | etot = -48.4966726617801
46000  ekin = 11.8973058918 |  erot = 11.5369637549564 | epot = -71.9309423094134 | etot = -48.4966726626571
47000  ekin = 11.3048691716595 |  erot = 11.8534105202765 | epot = -71.6549523562327 | etot = -48.4966726642967
48000  ekin = 10.6681247163112 |  erot = 12.1927455857892 | epot = -71.3575429678081 | etot = -48.4966726657076
49000  ekin = 9.98781452095464 |  erot = 12.5337626830787 | epot = -71.0182498702003 | etot = -48.496672666167
50000  ekin = 9.27805060546739 |  erot = 12.8568502175179 | epot = -70.6315734882936 | etot = -48.4966726653083
51000  ekin = 8.56816305051875 |  erot = 13.1473275670355 | epot = -70.2121632807441 | etot = -48.4966726631899
52000  ekin = 7.89968625326321 |  erot = 13.3972664509225 | epot = -69.7936253644643 | etot = -48.4966726602786
53000  ekin = 7.31936805861624 |  erot = 13.6052883011233 | epot = -69.4213290170347 | etot = -48.4966726572952
54000  ekin = 6.87026435043432 |  erot = 13.7746656104184 | epot = -69.1416026158054 | etot = -48.4966726549526
55000  ekin = 6.58358833130207 |  erot = 13.9106626376471 | epot = -68.9909236227069 | etot = -48.4966726537578
56000  ekin = 6.47340776924378 |  erot = 14.0180895137406 | epot = -68.9881699369077 | etot = -48.4966726539233
57000  ekin = 6.53490189398248 |  erot = 14.0996443244829 | epot = -69.1312188738695 | etot = -48.4966726554042
58000  ekin = 6.74582948881849 |  erot = 14.1551416501592 | epot = -69.397643796884 | etot = -48.4966726579063
59000  ekin = 7.07026744299498 |  erot = 14.181443523675 | epot = -69.7483836278294 | etot = -48.4966726611594
60000  ekin = 7.46321119956128 |  erot = 14.1729605115925 | epot = -70.1328443758898 | etot = -48.496672664736
61000  ekin = 7.87615620947669 |  erot = 14.1225980724392 | epot = -70.4954269501759 | etot = -48.49667266826
62000  ekin = 8.26246819545993 |  erot = 14.0231891838095 | epot = -70.7823300503898 | etot = -48.4966726711203
63000  ekin = 8.58419585421985 |  erot = 13.8690469944667 | epot = -70.949915521521 | etot = -48.4966726728345
64000  ekin = 8.81822702696002 |  erot = 13.6575496044134 | epot = -70.9724493044957 | etot = -48.4966726731223
65000  ekin = 8.95905321200098 |  erot = 13.3902699399848 | epot = -70.8459958240509 | etot = -48.4966726720651
66000  ekin = 9.01708021240228 |  erot = 13.0731504494323 | epot = -70.5869033319409 | etot = -48.4966726701064
67000  ekin = 9.01264024181509 |  erot = 12.7157756705985 | epot = -70.225088580306 | etot = -48.4966726678924
68000  ekin = 8.96786592552621 |  erot = 12.3300108275767 | epot = -69.7945494191637 | etot = -48.4966726660608
69000  ekin = 8.89809230228844 |  erot = 11.928253983063 | epot = -69.3230189502572 | etot = -48.4966726649057
70000  ekin = 8.80855518919751 |  erot = 11.5224663142643 | epot = -68.8276941678883 | etot = -48.4966726644265
71000  ekin = 8.6949838003739 |  erot = 11.1237231983039 | epot = -68.3153796630102 | etot = -48.4966726643324
72000  ekin = 8.54784464636697 |  erot = 10.7423794346699 | epot = -67.7868967452228 | etot = -48.496672664186
73000  ekin = 8.35855300081012 |  erot = 10.388582011598 | epot = -67.2438076759779 | etot = -48.4966726635698
74000  ekin = 8.12576446603971 |  erot = 10.0727225309051 | epot = -66.6951596591053 | etot = -48.4966726621605
75000  ekin = 7.85890437579136 |  erot = 9.8054850984277 | epot = -66.161062134339 | etot = -48.49667266012
76000  ekin = 7.57852165402571 |  erot = 9.59727081536779 | epot = -65.6724651268107 | etot = -48.4966726574172
77000  ekin = 7.31582042129657 |  erot = 9.45739858079184 | epot = -65.2698916571103 | etot = -48.4966726550219
78000  ekin = 7.10323229833937 |  erot = 9.39173074336831 | epot = -64.9916356947869 | etot = -48.4966726530792
79000  ekin = 6.96937218054422 |  erot = 9.40218099613585 | epot = -64.8682258285419 | etot = -48.4966726518619
80000  ekin = 6.93674566763441 |  erot = 9.48623430706696 | epot = -64.9196526261985 | etot = -48.4966726514971
81000  ekin = 7.0192568066677 |  erot = 9.63726327568284 | epot = -65.1531927343348 | etot = -48.4966726519842
82000  ekin = 7.22081712459809 |  erot = 9.84564997752216 | epot = -65.5631397554117 | etot = -48.4966726532914
83000  ekin = 7.53417765386436 |  erot = 10.1003599019659 | epot = -66.1312102111974 | etot = -48.4966726553672
84000  ekin = 7.94029058934585 |  erot = 10.3905229584641 | epot = -66.8274862058439 | etot = -48.4966726580339
85000  ekin = 8.40988507522682 |  erot = 10.7066512628594 | epot = -67.6132089989671 | etot = -48.4966726608809
86000  ekin = 8.90877838665031 |  erot = 11.0413122902595 | epot = -68.4467633402412 | etot = -48.4966726633314
87000  ekin = 9.40446727185092 |  erot = 11.3892123423166 | epot = -69.290352279581 | etot = -48.4966726654135
88000  ekin = 9.86641386533845 |  erot = 11.7464698262622 | epot = -70.1095563579288 | etot = -48.4966726663282
89000  ekin = 10.2794449749745 |  erot = 12.1093351833932 | epot = -70.8854528250664 | etot = -48.4966726666987
90000  ekin = 10.6448818632988 |  erot = 12.4712192860776 | epot = -71.6127738155184 | etot = -48.4966726661419
91000  ekin = 10.9592378236978 |  erot = 12.8213713070339 | epot = -72.2772817984384 | etot = -48.4966726677068
92000  ekin = 11.1805024607912 |  erot = 13.1782323505888 | epot = -72.8554074847649 | etot = -48.4966726733849
93000  ekin = 11.3486717558832 |  erot = 13.4886662723585 | epot = -73.3340106985069 | etot = -48.4966726702653
94000  ekin = 11.4194570018406 |  erot = 13.7677249757339 | epot = -73.6838546479538 | etot = -48.4966726703793
95000  ekin = 11.3899765892371 |  erot = 14.0119097397854 | epot = -73.8985589999729 | etot = -48.4966726709503
96000  ekin = 11.2605951113196 |  erot = 14.2148286413574 | epot = -73.9720964225398 | etot = -48.4966726698627
97000  ekin = 11.044590471426 |  erot = 14.3764700204586 | epot = -73.9177331597934 | etot = -48.4966726679088
98000  ekin = 10.7660933774799 |  erot = 14.4993108341513 | epot = -73.762076877059 | etot = -48.4966726654278
99000  ekin = 10.4555155361509 |  erot = 14.5876138558173 | epot = -73.5398020548123 | etot = -48.4966726628441
100000  ekin = 10.0974774598936 |  erot = 14.6249949423898 | epot = -73.2191455720035 | etot = -48.4966731697201
101000  ekin = 10.0415631096152 |  erot = 14.0961872066528 | epot = -72.6344231724529 | etot = -48.4966728561849
102000  ekin = 10.2892855713188 |  erot = 14.0121875104976 | epot = -72.7981457142978 | etot = -48.4966726324814
103000  ekin = 10.0309263370155 |  erot = 14.0335683972787 | epot = -72.5611673660218 | etot = -48.4966726317276
104000  ekin = 9.79194699005232 |  erot = 14.0507619049239 | epot = -72.3393815271562 | etot = -48.49667263218
105000  ekin = 9.56928640949214 |  erot = 14.0644676494016 | epot = -72.1304266917144 | etot = -48.4966726328207
106000  ekin = 9.35843270941806 |  erot = 14.0738948863181 | epot = -71.9290002289433 | etot = -48.4966726332071
107000  ekin = 9.1596020539438 |  erot = 14.0781570096032 | epot = -71.7344316966952 | etot = -48.4966726331482
108000  ekin = 8.98058598862165 |  erot = 14.0757573495358 | epot = -71.5530159707961 | etot = -48.4966726326387
109000  ekin = 8.83500010163943 |  erot = 14.0641942059669 | epot = -71.3958669399398 | etot = -48.4966726323334
110000  ekin = 8.73407156167211 |  erot = 14.039615923802 | epot = -71.2703601184358 | etot = -48.4966726329617
111000  ekin = 8.67544983167293 |  erot = 13.9967358275314 | epot = -71.1688582943784 | etot = -48.4966726351741
112000  ekin = 8.63500440762061 |  erot = 13.929305331338 | epot = -71.0609823775572 | etot = -48.4966726385985
113000  ekin = 8.57042592578365 |  erot = 13.8317248404398 | epot = -70.898823408096 | etot = -48.4966726418726
114000  ekin = 8.43989096913626 |  erot = 13.7008372464509 | epot = -70.6374008585741 | etot = -48.4966726429869
115000  ekin = 8.22527688481222 |  erot = 13.5374589941345 | epot = -70.2594085170062 | etot = -48.4966726380595
116000  ekin = 7.96055882645719 |  erot = 13.3455331436989 | epot = -69.8027646054372 | etot = -48.4966726352811
117000  ekin = 7.68480617458457 |  erot = 13.1328848481099 | epot = -69.3143636549154 | etot = -48.496672632221
118000  ekin = 7.42978537710139 |  erot = 12.9094282247775 | epot = -68.8358862320105 | etot = -48.4966726301316
119000  ekin = 7.21373639393334 |  erot = 12.6851208042351 | epot = -68.3955298273833 | etot = -48.4966726292148
120000  ekin = 7.03803293636792 |  erot = 12.469779726339 | epot = -68.0044852916955 | etot = -48.4966726289885
121000  ekin = 6.89367092644156 |  erot = 12.2728949512538 | epot = -67.6632385066891 | etot = -48.4966726289938
122000  ekin = 6.76879687257215 |  erot = 12.1027214693521 | epot = -67.3681909710516 | etot = -48.4966726291273
123000  ekin = 6.65210407178546 |  erot = 11.9648592015088 | epot = -67.1136359029303 | etot = -48.4966726296361
124000  ekin = 6.5311526770905 |  erot = 11.8616861164439 | epot = -66.8895114237908 | etot = -48.4966726302564
125000  ekin = 6.39605544212681 |  erot = 11.7907254418525 | epot = -66.6834535155173 | etot = -48.496672631538
126000  ekin = 6.23766494395302 |  erot = 11.7440508510342 | epot = -66.4783884275693 | etot = -48.496672632582
127000  ekin = 6.04911470795257 |  erot = 11.7111635255666 | epot = -66.2569508666246 | etot = -48.4966726331054
128000  ekin = 5.83208869215164 |  erot = 11.6822138801436 | epot = -66.0109752050964 | etot = -48.4966726328012
129000  ekin = 5.59955533756662 |  erot = 11.6485505375861 | epot = -65.7447785065456 | etot = -48.4966726313929
130000  ekin = 5.37616547346287 |  erot = 11.6055192857367 | epot = -65.4783573884596 | etot = -48.49667262926
131000  ekin = 5.19621347260085 |  erot = 11.5523382042833 | epot = -65.2452243036178 | etot = -48.4966726267337
132000  ekin = 5.09512855427479 |  erot = 11.4915853273357 | epot = -65.0833865066902 | etot = -48.4966726250797
133000  ekin = 5.09593793196039 |  erot = 11.4254654000411 | epot = -65.0180759559345 | etot = -48.496672623933
134000  ekin = 5.21315400668901 |  erot = 11.3572216289369 | epot = -65.067048258995 | etot = -48.4966726233691
135000  ekin = 5.45274887458339 |  erot = 11.2905481951987 | epot = -65.2399696930854 | etot = -48.4966726233033
136000  ekin = 5.81359277202031 |  erot = 11.229115941648 | epot = -65.5393813373521 | etot = -48.4966726236838
137000  ekin = 6.28595091476317 |  erot = 11.1752215008208 | epot = -65.9578450445987 | etot = -48.4966726290147
138000  ekin = 6.83489595318905 |  erot = 11.1238804126664 | epot = -66.4554489962861 | etot = -48.4966726304306
139000  ekin = 7.43298982214118 |  erot = 11.0759557714581 | epot = -67.0056182256057 | etot = -48.4966726320064
140000  ekin = 8.0542356752357 |  erot = 11.0338915539232 | epot = -67.5847998630984 | etot = -48.4966726339395
141000  ekin = 8.66814450976896 |  erot = 10.9995435661264 | epot = -68.1643607123613 | etot = -48.4966726364659
142000  ekin = 9.23299211625681 |  erot = 10.9739956101669 | epot = -68.7036603674081 | etot = -48.4966726409844
143000  ekin = 9.69542810760004 |  erot = 10.9568256540411 | epot = -69.1489264066348 | etot = -48.4966726449937
144000  ekin = 10.003571273052 |  erot = 10.9455251640246 | epot = -69.445769085823 | etot = -48.4966726487463
145000  ekin = 10.1140173167582 |  erot = 10.9367967497633 | epot = -69.5474867174191 | etot = -48.4966726508977
146000  ekin = 10.0102551934741 |  erot = 10.9282120719394 | epot = -69.4351399151897 | etot = -48.4966726497762
147000  ekin = 9.72372844852323 |  erot = 10.9204908015166 | epot = -69.1408918942996 | etot = -48.4966726442598
148000  ekin = 9.34553092121303 |  erot = 10.9194622742213 | epot = -68.7616658304597 | etot = -48.4966726350253
149000  ekin = 9.01308307721275 |  erot = 10.9361646162985 | epot = -68.4459203187316 | etot = -48.4966726252203
150000  ekin = 8.86556491619541 |  erot = 10.983824284899 | epot = -68.3460618203803 | etot = -48.4966726192859
151000  ekin = 8.98562593112885 |  erot = 11.072120718851 | epot = -68.5544192701762 | etot = -48.4966726201964
152000  ekin = 9.3631738241442 |  erot = 11.2013283048018 | epot = -69.0611747563306 | etot = -48.4966726273847
153000  ekin = 9.90592399926466 |  erot = 11.3597169983858 | epot = -69.7623136349252 | etot = -48.4966726372748
154000  ekin = 10.4876718007867 |  erot = 11.5259908274832 | epot = -70.5103352740073 | etot = -48.4966726457374
155000  ekin = 11.0014546611174 |  erot = 11.6755859722269 | epot = -71.1737132837594 | etot = -48.4966726504151
156000  ekin = 11.3882148349953 |  erot = 11.7874454844484 | epot = -71.6723329709522 | etot = -48.4966726515085
157000  ekin = 11.6329719121599 |  erot = 11.8481298115858 | epot = -71.9777743743932 | etot = -48.4966726506475
158000  ekin = 11.7436997816197 |  erot = 11.852602482573 | epot = -72.0929749132272 | etot = -48.4966726490345
159000  ekin = 11.7357219121832 |  erot = 11.8034015633378 | epot = -72.0357961222141 | etot = -48.4966726466931
160000  ekin = 11.6305552644547 |  erot = 11.7096700273708 | epot = -71.836897935155 | etot = -48.4966726433295
161000  ekin = 11.4596686193171 |  erot = 11.5857134121759 | epot = -71.5420546707722 | etot = -48.4966726392793
162000  ekin = 11.2620233891977 |  erot = 11.4483738449261 | epot = -71.2070698695277 | etot = -48.496672635404
163000  ekin = 11.0755659765704 |  erot = 11.313800197639 | epot = -70.8860388066519 | etot = -48.4966726324425
164000  ekin = 10.9292960811512 |  erot = 11.1949564931537 | epot = -70.6209252049808 | etot = -48.4966726306759
165000  ekin = 10.8401906864931 |  erot = 11.1006151382433 | epot = -70.4374784546651 | etot = -48.4966726299287
166000  ekin = 10.8146651781043 |  erot = 11.0356758462698 | epot = -70.3470136542516 | etot = -48.4966726298775
167000  ekin = 10.8520567567919 |  erot = 11.0022539306508 | epot = -70.3509833175986 | etot = -48.4966726301559
168000  ekin = 10.9484894336324 |  erot = 11.0010183041599 | epot = -70.4461803682628 | etot = -48.4966726304705
169000  ekin = 11.0998937027431 |  erot = 11.0324366339776 | epot = -70.6290029673729 | etot = -48.4966726306523
170000  ekin = 11.3034839733046 |  erot = 11.0977053912583 | epot = -70.8978619952584 | etot = -48.4966726306954
171000  ekin = 11.5572307267913 |  erot = 11.1992212781609 | epot = -71.2531246357302 | etot = -48.4966726307781
172000  ekin = 11.8571464638427 |  erot = 11.3405307806877 | epot = -71.6943498757713 | etot = -48.4966726312409
173000  ekin = 12.1927097200986 |  erot = 11.525788919093 | epot = -72.2151712717197 | etot = -48.4966726325281
174000  ekin = 12.5417902291443 |  erot = 11.758840169328 | epot = -72.7973030335617 | etot = -48.4966726350895
175000  ekin = 12.8647095032784 |  erot = 12.0421936377298 | epot = -73.4035757801798 | etot = -48.4966726391716
176000  ekin = 13.1024197132907 |  erot = 12.3759769580589 | epot = -73.9750693159974 | etot = -48.4966726446478
177000  ekin = 13.1907180968536 |  erot = 12.7566551418145 | epot = -74.4440458869539 | etot = -48.4966726482858
178000  ekin = 13.0526492219567 |  erot = 13.1773711164481 | epot = -74.726692993393 | etot = -48.4966726549883
179000  ekin = 12.208979458871 |  erot = 13.5830164197219 | epot = -74.2886682061555 | etot = -48.4966723275626
180000  ekin = 11.9004068675203 |  erot = 14.0870661177296 | epot = -74.4841455891966 | etot = -48.4966726039467
181000  ekin = 10.865476890365 |  erot = 14.5861339869459 | epot = -73.9482834733423 | etot = -48.4966725960314
182000  ekin = 9.66028270694687 |  erot = 15.1104289206581 | epot = -73.2673842110047 | etot = -48.4966725833997
183000  ekin = 8.48066280387175 |  erot = 15.6673690821397 | epot = -72.6447044561306 | etot = -48.4966725701191
184000  ekin = 7.526304138516 |  erot = 16.2665624203512 | epot = -72.2895391199355 | etot = -48.4966725610683
185000  ekin = 6.93646433275937 |  erot = 16.9124293952419 | epot = -72.3455662872076 | etot = -48.4966725592064
186000  ekin = 6.75402182356133 |  erot = 17.5959531882627 | epot = -72.8466475761033 | etot = -48.4966725642793
187000  ekin = 6.9317658430627 |  erot = 18.2901076459555 | epot = -73.7185460628751 | etot = -48.4966725738569
188000  ekin = 7.36496175937117 |  erot = 18.9517169220499 | epot = -74.813351266581 | etot = -48.4966725851599
189000  ekin = 7.92587452892364 |  erot = 19.5289159490227 | epot = -75.951463073941 | etot = -48.4966725959947
190000  ekin = 8.48887345556288 |  erot = 19.9711008208257 | epot = -76.9566468811711 | etot = -48.4966726047825
191000  ekin = 8.94279744308 |  erot = 20.2387056809861 | epot = -77.6781757357024 | etot = -48.4966726116363
192000  ekin = 9.20220030816504 |  erot = 20.310103806764 | epot = -78.008976728619 | etot = -48.49667261369
193000  ekin = 9.22639739330778 |  erot = 20.1841068563627 | epot = -77.9071768610989 | etot = -48.4966726114284
194000  ekin = 9.02106352746782 |  erot = 19.8798400124522 | epot = -77.3975761450934 | etot = -48.4966726051734
195000  ekin = 8.63698690390245 |  erot = 19.4322506720418 | epot = -76.5659101722231 | etot = -48.4966725962788
196000  ekin = 8.15745599945143 |  erot = 18.8847381250289 | epot = -75.5388667111771 | etot = -48.4966725866967
197000  ekin = 7.67775841892264 |  erot = 18.2815207246706 | epot = -74.4559517216721 | etot = -48.4966725780788
198000  ekin = 7.28589102712297 |  erot = 17.6623826120227 | epot = -73.4449462104595 | etot = -48.4966725713138
199000  ekin = 7.05017610429197 |  erot = 17.0606063919733 | epot = -72.6074550629812 | etot = -48.4966725667159
200000  ekin = 7.01285264529473 |  erot = 16.5030180881867 | epot = -72.0125432979155 | etot = -48.4966725644341
201000  ekin = 7.18628302948947 |  erot = 16.0106066265261 | epot = -71.6935622206128 | etot = -48.4966725645972
202000  ekin = 7.55028085660333 |  erot = 15.5985035867493 | epot = -71.6454570106459 | etot = -48.4966725672932
203000  ekin = 8.05261783918316 |  erot = 15.2753610695148 | epot = -71.8246514808057 | etot = -48.4966725721077
204000  ekin = 8.6158711971979 |  erot = 15.0430481939192 | epot = -72.1555919692059 | etot = -48.4966725780888
205000  ekin = 9.15150139881749 |  erot = 14.8972623538557 | epot = -72.545436336527 | etot = -48.4966725838538
206000  ekin = 9.57853091802796 |  erot = 14.8296218061972 | epot = -72.9048253122579 | etot = -48.4966725880327
207000  ekin = 9.8411046911694 |  erot = 14.8306579376128 | epot = -73.168435218537 | etot = -48.4966725897548
208000  ekin = 9.91915380069774 |  erot = 14.8924578832516 | epot = -73.3082842728938 | etot = -48.4966725889445
209000  ekin = 9.82907930164881 |  erot = 15.0096951815689 | epot = -73.3354470695325 | etot = -48.4966725863148
210000  ekin = 9.61485280029152 |  erot = 15.1785174137105 | epot = -73.2900427971232 | etot = -48.4966725831211
211000  ekin = 9.3325545363691 |  erot = 15.393727448833 | epot = -73.2229545659729 | etot = -48.4966725807709
212000  ekin = 9.03298062726553 |  erot = 15.6453857123186 | epot = -73.1750389199411 | etot = -48.4966725803569
213000  ekin = 8.74801774645141 |  erot = 15.9162328155375 | epot = -73.160923144196 | etot = -48.496672582207
214000  ekin = 8.48645509186425 |  erot = 16.1810372606247 | epot = -73.1641649379153 | etot = -48.4966725854264
215000  ekin = 8.24361394372113 |  erot = 16.4085443498316 | epot = -73.1488308822383 | etot = -48.4966725886856
216000  ekin = 8.01644140639934 |  erot = 16.5671904860408 | epot = -73.0803044821148 | etot = -48.4966725896746
217000  ekin = 7.82443857147104 |  erot = 16.6321169295482 | epot = -72.9532280885893 | etot = -48.4966725875701
218000  ekin = 7.71607328584994 |  erot = 16.589955779671 | epot = -72.802701649453 | etot = -48.496672583932
219000  ekin = 7.75310717264711 |  erot = 16.4350572743179 | epot = -72.6848370278656 | etot = -48.4966725809005
220000  ekin = 7.98143888037639 |  erot = 16.1675107350334 | epot = -72.6456221958618 | etot = -48.4966725804521
221000  ekin = 8.40773648374969 |  erot = 15.7897008204118 | epot = -72.6941098869422 | etot = -48.4966725827806
222000  ekin = 8.99748090378162 |  erot = 15.305157923798 | epot = -72.7993114139605 | etot = -48.4966725863809
223000  ekin = 9.69291742678953 |  erot = 14.7208372414102 | epot = -72.9104272575033 | etot = -48.4966725893036
224000  ekin = 10.4359945859693 |  erot = 14.0505863380238 | epot = -72.9832535144509 | etot = -48.4966725904578
225000  ekin = 11.181344032421 |  erot = 13.3180094413826 | epot = -72.9960260640916 | etot = -48.496672590288
226000  ekin = 11.8899174093553 |  erot = 12.5555741904355 | epot = -72.9421641905564 | etot = -48.4966725907657
227000  ekin = 12.5083401208455 |  erot = 11.7991557925114 | epot = -72.8041685069175 | etot = -48.4966725935606
228000  ekin = 12.9540489023968 |  erot = 11.0813711809747 | epot = -72.5320926818154 | etot = -48.4966725984439
229000  ekin = 13.1250482768418 |  erot = 10.4265507754533 | epot = -72.0482716553156 | etot = -48.4966726030206
230000  ekin = 12.93547767867 |  erot = 9.84937329189694 | epot = -71.2815235748189 | etot = -48.4966726042521
231000  ekin = 12.3571979238603 |  erot = 9.35664487117218 | epot = -70.2105153953933 | etot = -48.4966726003608
232000  ekin = 11.4413786355234 |  erot = 8.95013763085366 | epot = -68.8881888585121 | etot = -48.496672592135
233000  ekin = 10.3068608367525 |  erot = 8.62874527756927 | epot = -67.4322786963297 | etot = -48.4966725820079
234000  ekin = 9.10484994366605 |  erot = 8.38947611811651 | epot = -65.9909986342489 | etot = -48.4966725724663
235000  ekin = 7.97762335600034 |  erot = 8.22796057435292 | epot = -64.7022564960578 | etot = -48.4966725657046
236000  ekin = 7.03041833666579 |  erot = 8.14060898682963 | epot = -63.6676998849102 | etot = -48.4966725614148
237000  ekin = 6.33232778592734 |  erot = 8.12400287134981 | epot = -62.9530032163577 | etot = -48.4966725590806
238000  ekin = 5.92140822284618 |  erot = 8.17513077744407 | epot = -62.593211558521 | etot = -48.4966725582307
239000  ekin = 5.81123122340087 |  erot = 8.29054157425274 | epot = -62.5984453565726 | etot = -48.496672558919
240000  ekin = 5.9921782606862 |  erot = 8.46489799365414 | epot = -62.9537488157044 | etot = -48.4966725613641
241000  ekin = 6.43109156574885 |  erot = 8.68961368249024 | epot = -63.6173778141207 | etot = -48.4966725658816
242000  ekin = 7.06756407118874 |  erot = 8.95153614482613 | epot = -64.5157727888113 | etot = -48.4966725727964
243000  ekin = 7.81639319360568 |  erot = 9.23207829014354 | epot = -65.5451440641892 | etot = -48.4966725804399
244000  ekin = 8.58044212001519 |  erot = 9.50948701564983 | epot = -66.5866017229605 | etot = -48.4966725872954
245000  ekin = 9.26871916861169 |  erot = 9.75990826682251 | epot = -67.5253000301766 | etot = -48.4966725947423
246000  ekin = 9.78946573665948 |  erot = 9.96525866120354 | epot = -68.2513969979998 | etot = -48.4966726001368
247000  ekin = 10.074338839639 |  erot = 10.1147521472197 | epot = -68.6857635892556 | etot = -48.4966726023969
248000  ekin = 10.0941079494523 |  erot = 10.2065328814926 | epot = -68.7973134319883 | etot = -48.4966726010434
249000  ekin = 9.86393967730438 |  erot = 10.2475258665292 | epot = -68.608138141043 | etot = -48.4966725972094
250000  ekin = 9.43636984425956 |  erot = 10.2506637078711 | epot = -68.1837061428465 | etot = -48.4966725907158
251000  ekin = 8.89229868578391 |  erot = 10.2323346091272 | epot = -67.6213058787908 | etot = -48.4966725838797
252000  ekin = 8.31943898663794 |  erot = 10.2075884962966 | epot = -67.0237000610887 | etot = -48.4966725781541
253000  ekin = 7.79276077495758 |  erot = 10.1873587545193 | epot = -66.4767921038614 | etot = -48.4966725743845
254000  ekin = 7.36152147187324 |  erot = 10.1778229232013 | epot = -66.0360169681721 | etot = -48.4966725730975
255000  ekin = 7.04416809513748 |  erot = 10.1812481941785 | epot = -65.7220888627782 | etot = -48.4966725734622
256000  ekin = 6.83530017400791 |  erot = 10.196292238799 | epot = -65.5282649876963 | etot = -48.4966725748894
257000  ekin = 6.71442148101059 |  erot = 10.2200504443707 | epot = -65.4311445018596 | etot = -48.4966725764783
258000  ekin = 6.65781764564863 |  erot = 10.249212417528 | epot = -65.4037026408457 | etot = -48.4966725776691
259000  ekin = 6.64642051202687 |  erot = 10.2806008774753 | epot = -65.4236939679477 | etot = -48.4966725784454
260000  ekin = 6.6667539581685 |  erot = 10.3110375472838 | epot = -65.4744640845807 | etot = -48.4966725791284
261000  ekin = 6.70841492604748 |  erot = 10.3378721255392 | epot = -65.542959630791 | etot = -48.4966725792043
262000  ekin = 6.7627561946605 |  erot = 10.3595239082542 | epot = -65.618952682715 | etot = -48.4966725798004
263000  ekin = 6.82191301035538 |  erot = 10.3716898912741 | epot = -65.6902754814611 | etot = -48.4966725798317
264000  ekin = 6.88504914961346 |  erot = 10.3708999773012 | epot = -65.7526217059467 | etot = -48.4966725790321
265000  ekin = 6.96089828669206 |  erot = 10.3558192629914 | epot = -65.8133901272486 | etot = -48.4966725775651
266000  ekin = 7.06529185643191 |  erot = 10.3276065183126 | epot = -65.8895709506645 | etot = -48.49667257592
267000  ekin = 7.2150508833291 |  erot = 10.2893497391546 | epot = -66.0010731971209 | etot = -48.4966725746373
268000  ekin = 7.42137725344028 |  erot = 10.2450818723082 | epot = -66.1631316998468 | etot = -48.4966725740983
269000  ekin = 7.68524329713307 |  erot = 10.1988935008288 | epot = -66.3808093724073 | etot = -48.4966725744455
270000  ekin = 7.99580948966741 |  erot = 10.1544492652945 | epot = -66.646931330548 | etot = -48.4966725755861
271000  ekin = 8.33190485118741 |  erot = 10.115143501126 | epot = -66.9437209293586 | etot = -48.4966725770452
272000  ekin = 8.66610587590699 |  erot = 10.085640941843 | epot = -67.2484193965791 | etot = -48.4966725788291
273000  ekin = 8.9704214575926 |  erot = 10.0690324252262 | epot = -67.5361264630471 | etot = -48.4966725802283
274000  ekin = 9.22287683291808 |  erot = 10.0690361391098 | epot = -67.7885855527892 | etot = -48.4966725807613
275000  ekin = 9.41389302940836 |  erot = 10.0906946031028 | epot = -68.0012602127388 | etot = -48.4966725802276
276000  ekin = 9.54942761492452 |  erot = 10.1400083113489 | epot = -68.1861085050719 | etot = -48.4966725787985
277000  ekin = 9.64913594521908 |  erot = 10.2229042121053 | epot = -68.3687127343652 | etot = -48.4966725770408
278000  ekin = 9.73935192456521 |  erot = 10.3435700154448 | epot = -68.5795945157567 | etot = -48.4966725757468
279000  ekin = 9.84298152731809 |  erot = 10.5026140404878 | epot = -68.8422681434214 | etot = -48.4966725756155
280000  ekin = 9.97046187704711 |  erot = 10.695721289842 | epot = -69.1628557437736 | etot = -48.4966725768845
281000  ekin = 10.1137684706768 |  erot = 10.9135096018599 | epot = -69.5239506554916 | etot = -48.4966725829549
282000  ekin = 10.2288689015657 |  erot = 11.1422719920837 | epot = -69.8678134801834 | etot = -48.496672586534
283000  ekin = 10.2769463822215 |  erot = 11.364656809221 | epot = -70.1382757810653 | etot = -48.4966725896228
284000  ekin = 10.2298350175558 |  erot = 11.5634949517888 | epot = -70.2900025609829 | etot = -48.4966725916382
285000  ekin = 10.0723248849393 |  erot = 11.7243250964802 | epot = -70.2933225738199 | etot = -48.4966725924004
286000  ekin = 9.80394054072982 |  erot = 11.8369977519986 | epot = -70.1376108847892 | etot = -48.4966725920608
287000  ekin = 9.43655233183784 |  erot = 11.8964493797702 | epot = -69.8296743025364 | etot = -48.4966725909284
288000  ekin = 8.9901327175534 |  erot = 11.902740579156 | epot = -69.3895458860308 | etot = -48.4966725893213
289000  ekin = 8.48857673811131 |  erot = 11.8605226371617 | epot = -68.8457719627846 | etot = -48.4966725875116
290000  ekin = 7.95651311705382 |  erot = 11.7780720780978 | epot = -68.2312577808336 | etot = -48.4966725856819
291000  ekin = 7.41785902588184 |  erot = 11.6660397038379 | epot = -67.5805713135318 | etot = -48.4966725838121
292000  ekin = 6.89736764546674 |  erot = 11.5361414718254 | epot = -66.9301816988916 | etot = -48.4966725815995
293000  ekin = 6.42572947190954 |  erot = 11.4000701849455 | epot = -66.3224722354513 | etot = -48.4966725785962
294000  ekin = 6.04578762670357 |  erot = 11.2687731411177 | epot = -65.811233342468 | etot = -48.4966725746467
295000  ekin = 5.81372000921726 |  erot = 11.151954039165 | epot = -65.4623466187875 | etot = -48.4966725704053
296000  ekin = 5.78868895654182 |  erot = 11.0574288852255 | epot = -65.342790409187 | etot = -48.4966725674197
297000  ekin = 6.01086247217741 |  erot = 10.990062122233 | epot = -65.4975971618304 | etot = -48.49667256742
298000  ekin = 6.47793511118 |  erot = 10.9505151838713 | epot = -65.9251228662657 | etot = -48.4966725712144
299000  ekin = 7.13485226400437 |  erot = 10.9343849129961 | epot = -66.5659097551062 | etot = -48.4966725781057
300000  ekin = 7.88433986355137 |  erot = 10.9323127585897 | epot = -67.3133252083899 | etot = -48.4966725862488
301000  ekin = 8.61282845352861 |  erot = 10.9313732714674 | epot = -68.0408743185546 | etot = -48.4966725935586
302000  ekin = 9.21908440274501 |  erot = 10.9175582659887 | epot = -68.6333152671899 | etot = -48.4966725984562
303000  ekin = 9.63516616612172 |  erot = 10.8787665670573 | epot = -69.0106053333884 | etot = -48.4966726002094
304000  ekin = 9.83543476974214 |  erot = 10.8074962358206 | epot = -69.1396036043466 | etot = -48.4966725987838
305000  ekin = 9.83532020703887 |  erot = 10.7023193346269 | epot = -69.0343121365688 | etot = -48.4966725949031
306000  ekin = 9.68145093558137 |  erot = 10.5677982812234 | epot = -68.7459218064555 | etot = -48.4966725896507
307000  ekin = 9.43697927067622 |  erot = 10.4129945423112 | epot = -68.346646397237 | etot = -48.4966725842496
308000  ekin = 9.16617244364228 |  erot = 10.2491623578611 | epot = -67.9120073811735 | etot = -48.4966725796701
309000  ekin = 8.92159986058506 |  erot = 10.0874162913077 | epot = -67.5056887285634 | etot = -48.4966725766706
310000  ekin = 8.73563094099652 |  erot = 9.93715103617736 | epot = -67.1694545524438 | etot = -48.49667257527
311000  ekin = 8.61913259828551 |  erot = 9.80527711014699 | epot = -66.9210822838148 | etot = -48.4966725753823
312000  ekin = 8.56355763426671 |  erot = 9.69617071431657 | epot = -66.7564009251136 | etot = -48.4966725765303
313000  ekin = 8.54744454664916 |  erot = 9.61223302160562 | epot = -66.6563501463655 | etot = -48.4966725781107
314000  ekin = 8.54471031354538 |  erot = 9.55468856186332 | epot = -66.596071454942 | etot = -48.4966725795333
315000  ekin = 8.53582675037157 |  erot = 9.52360081786843 | epot = -66.556100148302 | etot = -48.496672580062
316000  ekin = 8.50947902794517 |  erot = 9.51910773892062 | epot = -66.5252593469274 | etot = -48.4966725800616
317000  ekin = 8.46528361596329 |  erot = 9.54310287693548 | epot = -66.5050590717174 | etot = -48.4966725788186
318000  ekin = 8.42148334749674 |  erot = 9.59812356341553 | epot = -66.5162794874792 | etot = -48.496672576567
319000  ekin = 8.41172051675576 |  erot = 9.68666529074891 | epot = -66.595058381451 | etot = -48.4966725739463
320000  ekin = 8.47631024941486 |  erot = 9.81010411288093 | epot = -66.7830869341661 | etot = -48.4966725718704
321000  ekin = 8.64981485680555 |  erot = 9.96750014912251 | epot = -67.1139875771601 | etot = -48.496672571232
322000  ekin = 8.94886501910018 |  erot = 10.1545796242746 | epot = -67.6001172159277 | etot = -48.4966725725529
323000  ekin = 9.36436094198703 |  erot = 10.3629464345285 | epot = -68.2239799526642 | etot = -48.4966725761487
324000  ekin = 9.85762299126192 |  erot = 10.5807030497669 | epot = -68.9349986231468 | etot = -48.496672582118
325000  ekin = 10.3675336373788 |  erot = 10.7915336066519 | epot = -69.6557398310533 | etot = -48.4966725870226
326000  ekin = 10.816903990493 |  erot = 10.9780749030574 | epot = -70.2916514883299 | etot = -48.4966725947794
327000  ekin = 11.1080827252192 |  erot = 11.1278633890706 | epot = -70.7326187147536 | etot = -48.4966726004637
328000  ekin = 11.1668072003083 |  erot = 11.235581979114 | epot = -70.8990617815842 | etot = -48.4966726021619
329000  ekin = 10.9674032566621 |  erot = 11.304765594024 | epot = -70.7688414496096 | etot = -48.4966725989235
330000  ekin = 10.547121908797 |  erot = 11.3459152750447 | epot = -70.3897097754633 | etot = -48.4966725916217
331000  ekin = 9.99817977289251 |  erot = 11.3709343468984 | epot = -69.8657867027919 | etot = -48.4966725830009
332000  ekin = 9.43640210781579 |  erot = 11.3868472546706 | epot = -69.3199219385159 | etot = -48.4966725760296
333000  ekin = 8.96275314875182 |  erot = 11.3930028323165 | epot = -68.8524285534324 | etot = -48.4966725723641
334000  ekin = 8.63845657354039 |  erot = 11.3827647269696 | epot = -68.5178938722245 | etot = -48.4966725717145
335000  ekin = 8.47696736449774 |  erot = 11.3460820193765 | epot = -68.3197219598789 | etot = -48.4966725760047
336000  ekin = 8.45129453005219 |  erot = 11.2716956100077 | epot = -68.2196627183547 | etot = -48.4966725782948
337000  ekin = 8.52855094860625 |  erot = 11.1567863476775 | epot = -68.1820098764319 | etot = -48.4966725801481
338000  ekin = 8.67667036350871 |  erot = 11.0029242666185 | epot = -68.1762672115666 | etot = -48.4966725814394
339000  ekin = 8.86840718542842 |  erot = 10.8141117179265 | epot = -68.1791914857385 | etot = -48.4966725823836
340000  ekin = 9.08074049345635 |  erot = 10.5949858590687 | epot = -68.1723989357598 | etot = -48.4966725832347
341000  ekin = 9.29280025524073 |  erot = 10.3497144840187 | epot = -68.1391873233601 | etot = -48.4966725841007
342000  ekin = 9.48478364391871 |  erot = 10.0817821314044 | epot = -68.0632383602066 | etot = -48.4966725848835
343000  ekin = 9.6388959972551 |  erot = 9.79448397039712 | epot = -67.9300525529965 | etot = -48.4966725853443
344000  ekin = 9.74179750089961 |  erot = 9.49171920193351 | epot = -67.7301892880875 | etot = -48.4966725852544
345000  ekin = 9.78689625543458 |  erot = 9.17855510441719 | epot = -67.4621239444668 | etot = -48.496672584615
346000  ekin = 9.77487619978473 |  erot = 8.8609811560378 | epot = -67.1325299393967 | etot = -48.4966725835741
347000  ekin = 9.71190434739885 |  erot = 8.54542801629783 | epot = -66.7540049461365 | etot = -48.4966725824398
348000  ekin = 9.60626623886717 |  erot = 8.23797752716332 | epot = -66.3409163475278 | etot = -48.4966725814973
349000  ekin = 9.46512205487193 |  erot = 7.94382241630258 | epot = -65.9056170520846 | etot = -48.4966725809101
350000  ekin = 9.29263921344808 |  erot = 7.66718775573161 | epot = -65.4564995498361 | etot = -48.4966725806564
351000  ekin = 9.09030704038254 |  erot = 7.41172558157287 | epot = -64.9987052024791 | etot = -48.4966725805237
352000  ekin = 8.85964507189226 |  erot = 7.18116708502125 | epot = -64.5374847370666 | etot = -48.4966725801531
353000  ekin = 8.60706719309802 |  erot = 6.97993996552234 | epot = -64.0836797376578 | etot = -48.4966725790374
354000  ekin = 8.35365998675665 |  erot = 6.8145151037189 | epot = -63.6648476658624 | etot = -48.4966725753869
355000  ekin = 8.13817060764854 |  erot = 6.69316622832579 | epot = -63.3280094087196 | etot = -48.4966725727453
356000  ekin = 8.00303344815202 |  erot = 6.62071403037358 | epot = -63.1204200476247 | etot = -48.4966725690991
357000  ekin = 8.00329594800783 |  erot = 6.60119920912428 | epot = -63.1011677225986 | etot = -48.4966725654665
358000  ekin = 8.19390069541091 |  erot = 6.636550051991 | epot = -63.327123310824 | etot = -48.4966725634221
359000  ekin = 8.6085148366759 |  erot = 6.72479591295477 | epot = -63.8299833140515 | etot = -48.4966725644209
360000  ekin = 9.24022555643279 |  erot = 6.85875874181368 | epot = -64.5956568672139 | etot = -48.4966725689674
361000  ekin = 10.034351766539 |  erot = 7.026011710125 | epot = -65.5570360531743 | etot = -48.4966725765103
362000  ekin = 10.8949623485148 |  erot = 7.21007448016391 | epot = -66.6017094133684 | etot = -48.4966725846897
363000  ekin = 11.7154060071762 |  erot = 7.39407842265717 | epot = -67.6061570205393 | etot = -48.4966725907059
364000  ekin = 12.4057223335983 |  erot = 7.56453665263417 | epot = -68.4669315836099 | etot = -48.4966725973774
365000  ekin = 12.8900700952276 |  erot = 7.71262358052384 | epot = -69.0993662750156 | etot = -48.4966725992642
366000  ekin = 13.1382701917081 |  erot = 7.83636021671961 | epot = -69.4713030061088 | etot = -48.496672597681
367000  ekin = 13.1662433494605 |  erot = 7.94108342052155 | epot = -69.6039993641253 | etot = -48.4966725941432
368000  ekin = 13.0216257322138 |  erot = 8.03746300619996 | epot = -69.5557613271287 | etot = -48.4966725887149
369000  ekin = 12.7699639205339 |  erot = 8.13884083905568 | epot = -69.4054773430571 | etot = -48.4966725834675
370000  ekin = 12.4763633941104 |  erot = 8.25852807051828 | epot = -69.2315640444863 | etot = -48.4966725798576
371000  ekin = 12.1883522141829 |  erot = 8.40712894601772 | epot = -69.0921537380504 | etot = -48.4966725778498
372000  ekin = 11.9337668266896 |  erot = 8.59209712214225 | epot = -69.0225365257694 | etot = -48.4966725769375
373000  ekin = 11.7268114357595 |  erot = 8.81820188226438 | epot = -69.0416858944077 | etot = -48.4966725763838
374000  ekin = 11.5751062922332 |  erot = 9.08799140196574 | epot = -69.1597702703661 | etot = -48.4966725761671
375000  ekin = 11.4816771194416 |  erot = 9.40179119698427 | epot = -69.3801408929908 | etot = -48.4966725765649
376000  ekin = 11.4415244462603 |  erot = 9.75725267435429 | epot = -69.6954496985943 | etot = -48.4966725779798
377000  ekin = 11.4364317356741 |  erot = 10.1487019288237 | epot = -70.0818062452216 | etot = -48.4966725807238
378000  ekin = 11.4326847178295 |  erot = 10.5666289070253 | epot = -70.4959862088748 | etot = -48.49667258402
379000  ekin = 11.3879261245098 |  erot = 10.9960382478656 | epot = -70.8806369610084 | etot = -48.4966725886331
380000  ekin = 11.2500883026358 |  erot = 11.4211944009636 | epot = -71.1679552963854 | etot = -48.496672592786
381000  ekin = 10.9726921229526 |  erot = 11.8269291033643 | epot = -71.2962938220454 | etot = -48.4966725957285
382000  ekin = 10.5281602153976 |  erot = 12.1993149200473 | epot = -71.2241477322054 | etot = -48.4966725967605
383000  ekin = 9.91669157181401 |  erot = 12.5275908716548 | epot = -70.9409550387162 | etot = -48.4966725952474
384000  ekin = 9.17301492863905 |  erot = 12.8043890136515 | epot = -70.4740765340865 | etot = -48.496672591796
385000  ekin = 8.36601181966327 |  erot = 13.0251847436255 | epot = -69.8878691486855 | etot = -48.4966725853967
386000  ekin = 7.59336935509403 |  erot = 13.1937587055521 | epot = -69.2838006385291 | etot = -48.496672577883
387000  ekin = 6.96355937778036 |  erot = 13.3174316291755 | epot = -68.7776635784478 | etot = -48.4966725714919
388000  ekin = 6.56667711261247 |  erot = 13.4028350179155 | epot = -68.4661846989084 | etot = -48.4966725683804
389000  ekin = 6.44526911470511 |  erot = 13.4523416306498 | epot = -68.3942833609211 | etot = -48.4966726155662
390000  ekin = 6.40022004919765 |  erot = 13.5413190040287 | epot = -68.4382116193719 | etot = -48.4966725661455
391000  ekin = 6.74670657783749 |  erot = 13.6308036790083 | epot = -68.8741828739413 | etot = -48.4966726170955
392000  ekin = 7.27053910737622 |  erot = 13.5318497226498 | epot = -69.2990614444291 | etot = -48.4966726144031
393000  ekin = 7.84211066747869 |  erot = 13.3471669898687 | epot = -69.6859502753061 | etot = -48.4966726179587
394000  ekin = 8.41137168862502 |  erot = 13.0851416289766 | epot = -69.9931859369648 | etot = -48.4966726193632
395000  ekin = 8.94777378646798 |  erot = 12.7509585841152 | epot = -70.1954049894811 | etot = -48.4966726188979
396000  ekin = 9.44412388892584 |  erot = 12.3562529221244 | epot = -70.297049428146 | etot = -48.4966726170958
397000  ekin = 9.91050995592984 |  erot = 11.9175382863771 | epot = -70.3247208568332 | etot = -48.4966726145263
398000  ekin = 10.3672265667457 |  erot = 11.4545225019148 | epot = -70.3184216802825 | etot = -48.496672611622
399000  ekin = 10.8377881061057 |  erot = 10.9888166293396 | epot = -70.3232773445435 | etot = -48.4966726090982
400000  ekin = 11.3412083655906 |  erot = 10.5421455765221 | epot = -70.3800265494643 | etot = -48.4966726073516
401000  ekin = 11.8856989725315 |  erot = 10.1353050509418 | epot = -70.5176766301431 | etot = -48.4966726066698
402000  ekin = 12.4648693384742 |  erot = 9.78704273787649 | epot = -70.7485846834701 | etot = -48.4966726071194
403000  ekin = 13.0574032172491 |  erot = 9.51287607376237 | epot = -71.0669518996597 | etot = -48.4966726086482
404000  ekin = 13.6291563425453 |  erot = 9.32384163730746 | epot = -71.4496705902414 | etot = -48.4966726103886
405000  ekin = 14.1398204790104 |  erot = 9.22499609598776 | epot = -71.8614891890074 | etot = -48.4966726140092
406000  ekin = 14.5379075449395 |  erot = 9.21473993624808 | epot = -72.2493200997984 | etot = -48.4966726186109
407000  ekin = 14.7678000074175 |  erot = 9.28285845908944 | epot = -72.5473310902557 | etot = -48.4966726237488
408000  ekin = 14.7748392328111 |  erot = 9.41288741277583 | epot = -72.6843992736533 | etot = -48.4966726280664
409000  ekin = 14.5211191200252 |  erot = 9.58494933066075 | epot = -72.6027410803703 | etot = -48.4966726296844
410000  ekin = 14.0080722078189 |  erot = 9.78050651648513 | epot = -72.2852513516023 | etot = -48.4966726272983
411000  ekin = 13.2885633490651 |  erot = 9.98745844074547 | epot = -71.772694411005 | etot = -48.4966726211944
412000  ekin = 12.4602105802442 |  erot = 10.2020245096475 | epot = -71.1589077031162 | etot = -48.4966726132245
413000  ekin = 11.6411968847561 |  erot = 10.4265056500181 | epot = -70.5643751405499 | etot = -48.4966726057758
414000  ekin = 10.9403488034623 |  erot = 10.6647067440049 | epot = -70.1017281481772 | etot = -48.49667260071
415000  ekin = 10.433783595881 |  erot = 10.9176175688996 | epot = -69.848073763674 | etot = -48.4966725988934
416000  ekin = 10.1537726116128 |  erot = 11.1808649833023 | epot = -69.8313101952197 | etot = -48.4966726003046
417000  ekin = 10.0887098230938 |  erot = 11.4440532452147 | epot = -70.02943567283 | etot = -48.4966726045215
418000  ekin = 10.190074829634 |  erot = 11.6914864860019 | epot = -70.3782339258433 | etot = -48.4966726102074
419000  ekin = 10.3882021396874 |  erot = 11.9042621356376 | epot = -70.7891368916741 | etot = -48.4966726163491
420000  ekin = 10.6068294649445 |  erot = 12.0629207258314 | epot = -71.1664228124883 | etot = -48.4966726217125
421000  ekin = 10.7783620216829 |  erot = 12.1507790873636 | epot = -71.4258137343299 | etot = -48.4966726252835
422000  ekin = 10.8559244969723 |  erot = 12.1572275839653 | epot = -71.5098247075254 | etot = -48.4966726265878
423000  ekin = 10.8187145658748 |  erot = 12.0798940410339 | epot = -71.3952812326886 | etot = -48.4966726257799
424000  ekin = 10.6702271597679 |  erot = 11.9248162769213 | epot = -71.0917160600829 | etot = -48.4966726233937
425000  ekin = 10.4326823760816 |  erot = 11.7046834731807 | epot = -70.6340384692245 | etot = -48.4966726199622
426000  ekin = 10.1418512279971 |  erot = 11.4360680199788 | epot = -70.0745918638419 | etot = -48.496672615866
427000  ekin = 9.84290131621087 |  erot = 11.1364780215197 | epot = -69.4760519492651 | etot = -48.4966726115346
428000  ekin = 9.58662756133241 |  erot = 10.821960762215 | epot = -68.9052609309334 | etot = -48.496672607386
429000  ekin = 9.42385367702911 |  erot = 10.5054247282143 | epot = -68.4259510095998 | etot = -48.4966726043564
430000  ekin = 9.39326971067816 |  erot = 10.1945970633421 | epot = -68.0845393772916 | etot = -48.4966726032714
431000  ekin = 9.51026104610444 |  erot = 9.89118956776975 | epot = -67.8981232184526 | etot = -48.4966726045784
432000  ekin = 9.76020464994824 |  erot = 9.59158522243527 | epot = -67.8484624803418 | etot = -48.4966726079583
433000  ekin = 10.1011132166153 |  erot = 9.28935747991172 | epot = -67.8871433087293 | etot = -48.4966726122023
434000  ekin = 10.4772946453693 |  erot = 8.97915707056022 | epot = -67.9531243315739 | etot = -48.4966726156444
435000  ekin = 10.8390965471355 |  erot = 8.66047090162734 | epot = -67.9962400658333 | etot = -48.4966726170705
436000  ekin = 11.1581846565944 |  erot = 8.3392707492889 | epot = -67.9941280217473 | etot = -48.4966726158639
437000  ekin = 11.4322684558205 |  erot = 8.02673002726564 | epot = -67.9556710974705 | etot = -48.4966726143843
438000  ekin = 11.6671720806769 |  erot = 7.7347657334681 | epot = -67.8986104279858 | etot = -48.4966726138408
439000  ekin = 11.8579368223529 |  erot = 7.47155579533608 | epot = -67.8261652326354 | etot = -48.4966726149464
440000  ekin = 11.9818235336985 |  erot = 7.23965689695516 | epot = -67.7181530477157 | etot = -48.4966726170621
441000  ekin = 12.006364309195 |  erot = 7.03716778989405 | epot = -67.540204717822 | etot = -48.496672618733
442000  ekin = 11.9008309355874 |  erot = 6.85995053950619 | epot = -67.2574540949955 | etot = -48.4966726199018
443000  ekin = 11.6372457710013 |  erot = 6.70222774768093 | epot = -66.8361461367695 | etot = -48.4966726180872
444000  ekin = 11.2404935702983 |  erot = 6.56274006493237 | epot = -66.2999062491669 | etot = -48.4966726139361
445000  ekin = 10.7717210496686 |  erot = 6.44292159848128 | epot = -65.7113152554438 | etot = -48.4966726072939
446000  ekin = 10.3146345399852 |  erot = 6.34495994126369 | epot = -65.1562670843326 | etot = -48.4966726030837
447000  ekin = 9.9389588667874 |  erot = 6.27103072196767 | epot = -64.7066621875596 | etot = -48.4966725988045
448000  ekin = 9.70550645607349 |  erot = 6.22337425449965 | epot = -64.425553306808 | etot = -48.4966725962348
449000  ekin = 9.65303357367756 |  erot = 6.20344657437993 | epot = -64.3531527440081 | etot = -48.4966725959506
450000  ekin = 9.78741215229139 |  erot = 6.21100556223616 | epot = -64.4950903141271 | etot = -48.4966725995995
451000  ekin = 10.0726697695264 |  erot = 6.2412161050764 | epot = -64.8105584783906 | etot = -48.4966726037877
452000  ekin = 10.4498627201602 |  erot = 6.28789558017921 | epot = -65.2344309085503 | etot = -48.4966726082109
453000  ekin = 10.8573529820942 |  erot = 6.34427199361688 | epot = -65.6982975880198 | etot = -48.4966726123087
454000  ekin = 11.2383729595063 |  erot = 6.40217211180018 | epot = -66.1372176874695 | etot = -48.496672616163
455000  ekin = 11.5411597564406 |  erot = 6.45158842061341 | epot = -66.4894207971995 | etot = -48.4966726201456
456000  ekin = 11.7145965069739 |  erot = 6.48095932011328 | epot = -66.6922284513027 | etot = -48.4966726242155
457000  ekin = 11.7080889257769 |  erot = 6.47904948061318 | epot = -66.6838110338808 | etot = -48.4966726274907
458000  ekin = 11.4817974385159 |  erot = 6.43838338688191 | epot = -66.4168534538142 | etot = -48.4966726284164
459000  ekin = 11.0260461729884 |  erot = 6.35890594747127 | epot = -65.8816247459525 | etot = -48.4966726254929
460000  ekin = 10.381121389158 |  erot = 6.25005112059141 | epot = -65.127845127918 | etot = -48.4966726181686
461000  ekin = 9.64500400725042 |  erot = 6.13001722354273 | epot = -64.2716938384326 | etot = -48.4966726076395
462000  ekin = 8.96155334211872 |  erot = 6.02325653342783 | epot = -63.4814824659888 | etot = -48.4966725904422
463000  ekin = 8.49356022965774 |  erot = 5.96064229273234 | epot = -62.9508751084301 | etot = -48.49667258604
464000  ekin = 8.3109832270081 |  erot = 5.95399558728178 | epot = -62.7616514011185 | etot = -48.4966725868287
465000  ekin = 8.41527289817388 |  erot = 6.0055516324813 | epot = -62.9174971228152 | etot = -48.4966725921601
466000  ekin = 8.74071951181045 |  erot = 6.1074520246253 | epot = -63.3448441360598 | etot = -48.496672599624
467000  ekin = 8.88640654863553 |  erot = 6.32601497546456 | epot = -63.7090940528085 | etot = -48.4966725287084
468000  ekin = 9.07505160349039 |  erot = 6.75512448016553 | epot = -64.3268486409287 | etot = -48.4966725572727
469000  ekin = 9.43618930733132 |  erot = 6.98018590412332 | epot = -64.9130477258332 | etot = -48.4966725143785
470000  ekin = 9.538919289188 |  erot = 7.05614003958472 | epot = -65.0917318421174 | etot = -48.4966725133447
471000  ekin = 9.47129866751815 |  erot = 7.09012582281118 | epot = -65.0580969996895 | etot = -48.4966725093602
472000  ekin = 9.29219039295878 |  erot = 7.08038845065045 | epot = -64.8692513475549 | etot = -48.4966725039457
473000  ekin = 9.07859106351279 |  erot = 7.03223766267621 | epot = -64.607501224468 | etot = -48.496672498279
474000  ekin = 8.90859119078704 |  erot = 6.95657374547578 | epot = -64.3618374293557 | etot = -48.4966724930929
475000  ekin = 8.85085237798471 |  erot = 6.8678855783273 | epot = -64.2154104451996 | etot = -48.4966724888876
476000  ekin = 8.95844704217659 |  erot = 6.78173938273415 | epot = -64.2368589109225 | etot = -48.4966724860117
477000  ekin = 9.26445642866612 |  erot = 6.71235576620898 | epot = -64.4734846831842 | etot = -48.4966724883091
478000  ekin = 9.75673758778896 |  erot = 6.67310243751879 | epot = -64.9265125144501 | etot = -48.4966724891423
479000  ekin = 10.4083719413719 |  erot = 6.67104131554937 | epot = -65.5760857487077 | etot = -48.4966724917864
480000  ekin = 11.1786387692672 |  erot = 6.70609770629968 | epot = -66.3814089720556 | etot = -48.4966724964887
481000  ekin = 11.955017983447 |  erot = 6.77573712921919 | epot = -67.2274276422405 | etot = -48.4966725295744
482000  ekin = 12.1969877155611 |  erot = 6.97182101598508 | epot = -67.6654811323836 | etot = -48.4966724008374
483000  ekin = 12.8315687002552 |  erot = 7.27453378452983 | epot = -68.6027750200091 | etot = -48.4966725352242
484000  ekin = 13.1379089548564 |  erot = 7.35121017885419 | epot = -68.9857915492656 | etot = -48.496672415555
485000  ekin = 13.1455744815435 |  erot = 7.39132031007749 | epot = -69.0335672083196 | etot = -48.4966724166985
486000  ekin = 12.8847677059972 |  erot = 7.41820327752905 | epot = -68.7996433974453 | etot = -48.496672413919
487000  ekin = 12.399502329581 |  erot = 7.43730294200712 | epot = -68.3334776794535 | etot = -48.4966724078654
488000  ekin = 11.7801246298442 |  erot = 7.4587284290903 | epot = -67.7355254588088 | etot = -48.4966723998742
489000  ekin = 11.1454971167235 |  erot = 7.49387389623962 | epot = -67.1360434047378 | etot = -48.4966723917747
490000  ekin = 10.6174118657145 |  erot = 7.55177149143107 | epot = -66.6658557429406 | etot = -48.4966723857951
491000  ekin = 10.2893788237688 |  erot = 7.63548116163656 | epot = -66.4215323696018 | etot = -48.4966723841964
492000  ekin = 10.1956274376299 |  erot = 7.73922358369629 | epot = -66.4315234096733 | etot = -48.4966723883471
493000  ekin = 10.2924671649693 |  erot = 7.84793186662627 | epot = -66.6370714291488 | etot = -48.4966723975533
494000  ekin = 10.4668249564187 |  erot = 7.94111684624346 | epot = -66.9046142110915 | etot = -48.4966724084293
495000  ekin = 10.5791383441977 |  erot = 8.00124026342726 | epot = -67.0770510235024 | etot = -48.4966724158775
496000  ekin = 10.5277635544038 |  erot = 8.02342438969195 | epot = -67.0478603599899 | etot = -48.4966724158941
497000  ekin = 10.30086385813 |  erot = 8.02081822151415 | epot = -66.8183544878778 | etot = -48.4966724082336
498000  ekin = 9.98303008284435 |  erot = 8.02168645222476 | epot = -66.5013889316123 | etot = -48.4966723965432
499000  ekin = 9.71342589187436 |  erot = 8.05962720414192 | epot = -66.2697254818908 | etot = -48.4966723858745
500000  ekin = 9.62351689111112 |  erot = 8.16244515236989 | epot = -66.2826344234739 | etot = -48.4966723799929
501000  ekin = 9.78787333395234 |  erot = 8.34447303670098 | epot = -66.6290187508615 | etot = -48.4966723802081
502000  ekin = 10.2050108702449 |  erot = 8.60370485257075 | epot = -67.3053881086197 | etot = -48.496672385804
503000  ekin = 10.8051989674703 |  erot = 8.92246829121616 | epot = -68.2243396539026 | etot = -48.4966723952162
504000  ekin = 11.4710453970417 |  erot = 9.26984220621426 | epot = -69.2375600102371 | etot = -48.4966724069811
505000  ekin = 12.0583532742894 |  erot = 9.60506055562244 | epot = -70.1600862495617 | etot = -48.4966724196498
506000  ekin = 12.4169616299659 |  erot = 9.88273601245811 | epot = -70.7963700731421 | etot = -48.4966724307181
507000  ekin = 12.4225762032712 |  erot = 10.0614429671584 | epot = -70.9806916066627 | etot = -48.4966724362331
508000  ekin = 12.0224546477967 |  erot = 10.1150484290153 | epot = -70.634175509695 | etot = -48.496672432883
509000  ekin = 11.2713256108169 |  erot = 10.0417150355005 | epot = -69.8097130672477 | etot = -48.4966724209303
510000  ekin = 10.3259224264551 |  erot = 9.86440101433146 | epot = -68.6869958452135 | etot = -48.4966724044269
511000  ekin = 9.39566767794344 |  erot = 9.62224126640413 | epot = -67.5145813329437 | etot = -48.4966723885962
512000  ekin = 8.67739606863615 |  erot = 9.35823452026465 | epot = -66.5323029667225 | etot = -48.4966723778217
513000  ekin = 8.30173505002563 |  erot = 9.10874451686805 | epot = -65.9071519407518 | etot = -48.4966723738582
514000  ekin = 8.3113375854301 |  erot = 8.90213046048809 | epot = -65.7101404213574 | etot = -48.4966723754392
515000  ekin = 8.65105183703817 |  erot = 8.75142823023472 | epot = -65.899152451442 | etot = -48.4966723841691
516000  ekin = 9.1954550480298 |  erot = 8.6502059079052 | epot = -66.3423333511867 | etot = -48.4966723952517
517000  ekin = 9.78948013482921 |  erot = 8.58459334667161 | epot = -66.8707458886993 | etot = -48.4966724071985
518000  ekin = 10.2719405203321 |  erot = 8.53610767678378 | epot = -67.3047206152614 | etot = -48.4966724181456
519000  ekin = 10.5035619039848 |  erot = 8.48509741612475 | epot = -67.4853317484689 | etot = -48.4966724283593
520000  ekin = 10.3837804904919 |  erot = 8.4185529346285 | epot = -67.2990058538545 | etot = -48.496672428734
521000  ekin = 9.91971480314198 |  erot = 8.33012920359769 | epot = -66.7465164260093 | etot = -48.4966724192696
522000  ekin = 9.25580910204102 |  erot = 8.22471517244849 | epot = -65.9771966778011 | etot = -48.4966724033116
523000  ekin = 8.61677254370324 |  erot = 8.11873116215534 | epot = -65.2321760932963 | etot = -48.4966723874377
524000  ekin = 8.22312599622406 |  erot = 8.03533827061828 | epot = -64.7551366426596 | etot = -48.4966723758172
525000  ekin = 8.2309691909826 |  erot = 7.99952905912536 | epot = -64.7271706204067 | etot = -48.4966723702988
526000  ekin = 8.70541343273485 |  erot = 8.03327780736731 | epot = -65.2353636117 | etot = -48.4966723715978
527000  ekin = 9.61054447391353 |  erot = 8.14859195677518 | epot = -66.2558088114194 | etot = -48.4966723807307
528000  ekin = 10.8064190210875 |  erot = 8.3420304871121 | epot = -67.6451219043478 | etot = -48.4966723961482
529000  ekin = 12.0748947023087 |  erot = 8.59301141002262 | epot = -69.1645785260949 | etot = -48.4966724137635
530000  ekin = 13.1772899055304 |  erot = 8.86731230207834 | epot = -70.5412746359321 | etot = -48.4966724283233
531000  ekin = 13.9222479331255 |  erot = 9.12596646771992 | epot = -71.5448868368715 | etot = -48.496672436026
532000  ekin = 14.2109040111238 |  erot = 9.33621159857522 | epot = -72.043788046181 | etot = -48.496672436482
533000  ekin = 14.0393496049576 |  erot = 9.47948522975253 | epot = -72.0155072660581 | etot = -48.496672431348
534000  ekin = 13.4765937111615 |  erot = 9.55437050366246 | epot = -71.5276366366105 | etot = -48.4966724217865
535000  ekin = 12.6476855099125 |  erot = 9.57521298730488 | epot = -70.7195709060979 | etot = -48.4966724088806
536000  ekin = 11.7187499511124 |  erot = 9.56662150348782 | epot = -69.7820438497728 | etot = -48.4966723951726
537000  ekin = 10.8667161280507 |  erot = 9.55558575453867 | epot = -68.9189742663293 | etot = -48.4966723837399
538000  ekin = 10.2407642555876 |  erot = 9.56460479408646 | epot = -68.3020414264087 | etot = -48.4966723767346
539000  ekin = 9.93256310303427 |  erot = 9.60813474981862 | epot = -68.037370227789 | etot = -48.4966723749361
540000  ekin = 9.96635059453257 |  erot = 9.69366995176784 | epot = -68.1566929215052 | etot = -48.4966723752048
541000  ekin = 10.303343456536 |  erot = 9.82452773452695 | epot = -68.6245435736532 | etot = -48.4966723825902
542000  ekin = 10.8374546470957 |  erot = 9.992102037307 | epot = -69.3262290764318 | etot = -48.4966723920292
543000  ekin = 11.4320363085168 |  erot = 10.1839460986285 | epot = -70.1126548087651 | etot = -48.4966724016197
544000  ekin = 11.9481549487192 |  erot = 10.3868550357452 | epot = -70.8316823940889 | etot = -48.4966724096245
545000  ekin = 12.2696023021406 |  erot = 10.5892508891737 | epot = -71.3555256060593 | etot = -48.4966724147449
546000  ekin = 12.3217483706249 |  erot = 10.7831241362984 | epot = -71.6015449232287 | etot = -48.4966724163055
547000  ekin = 12.0815090898563 |  erot = 10.9652333442813 | epot = -71.5434148484562 | etot = -48.4966724143186
548000  ekin = 11.5772594483322 |  erot = 11.1370572249222 | epot = -71.2109890828318 | etot = -48.4966724095774
549000  ekin = 10.8796146423124 |  erot = 11.3027415301207 | epot = -70.6790285755984 | etot = -48.4966724031653
550000  ekin = 10.0861650600734 |  erot = 11.4673420616859 | epot = -70.0501795180675 | etot = -48.4966723963082
551000  ekin = 9.30420856257845 |  erot = 11.6346062513071 | epot = -69.43548720398 | etot = -48.4966723900945
552000  ekin = 8.63456852524822 |  erot = 11.8051739021444 | epot = -68.9364148128054 | etot = -48.4966723854128
553000  ekin = 8.15765857155105 |  erot = 11.9755314527531 | epot = -68.629862407268 | etot = -48.4966723829638
554000  ekin = 7.92204387538207 |  erot = 12.1379035109604 | epot = -68.5566197695115 | etot = -48.496672383169
555000  ekin = 7.93668594971714 |  erot = 12.2813102396146 | epot = -68.7146685753707 | etot = -48.496672386039
556000  ekin = 8.16908147833887 |  erot = 12.3937793343091 | epot = -69.0595332036284 | etot = -48.4966723909804
557000  ekin = 8.55144497223442 |  erot = 12.4654791728132 | epot = -69.5135965419282 | etot = -48.4966723968806
558000  ekin = 8.99506879128744 |  erot = 12.4919043884409 | epot = -69.9836455820571 | etot = -48.4966724023288
559000  ekin = 9.40988612193244 |  erot = 12.4759637500153 | epot = -70.3825222781031 | etot = -48.4966724061554
560000  ekin = 9.72239125486998 |  erot = 12.4279361390851 | epot = -70.646999801987 | etot = -48.4966724080319
561000  ekin = 9.88412985931348 |  erot = 12.362925284344 | epot = -70.7437275521108 | etot = -48.4966724084533
562000  ekin = 9.87014392586027 |  erot = 12.2969140239478 | epot = -70.6637303577474 | etot = -48.4966724079393
563000  ekin = 9.67269052978222 |  erot = 12.2435461742287 | epot = -70.4129091123981 | etot = -48.4966724083872
564000  ekin = 9.29561869655988 |  erot = 12.2123745870699 | epot = -70.0046656891992 | etot = -48.4966724055694
565000  ekin = 8.7796761019033 |  erot = 12.2075615849002 | epot = -69.483910087976 | etot = -48.4966724011726
566000  ekin = 8.19459477306839 |  erot = 12.2284388471642 | epot = -68.9197060162217 | etot = -48.4966723959891
567000  ekin = 7.62573923576745 |  erot = 12.2693533996089 | epot = -68.3917650267552 | etot = -48.4966723913789
568000  ekin = 7.1540405418214 |  erot = 12.3199400383644 | epot = -67.970652968677 | etot = -48.4966723884911
569000  ekin = 6.83717313921992 |  erot = 12.366638968345 | epot = -67.7004844953302 | etot = -48.4966723877653
570000  ekin = 6.69956781469148 |  erot = 12.3955125883646 | epot = -67.5917527919417 | etot = -48.4966723888856
571000  ekin = 6.73320809604583 |  erot = 12.3955019363106 | epot = -67.6253824234285 | etot = -48.4966723910721
572000  ekin = 6.90669043392856 |  erot = 12.3609011894213 | epot = -67.7642640154649 | etot = -48.4966723921151
573000  ekin = 7.18429647824449 |  erot = 12.2951299555 | epot = -67.9760988289113 | etot = -48.4966723951668
574000  ekin = 7.52006639758826 |  erot = 12.2050646486109 | epot = -68.2218034429555 | etot = -48.4966723967564
575000  ekin = 7.87441000634015 |  erot = 12.0985403158825 | epot = -68.4696227188371 | etot = -48.4966723966145
576000  ekin = 8.23152231490983 |  erot = 11.986305371134 | epot = -68.7145000811857 | etot = -48.4966723951418
577000  ekin = 8.59621090786532 |  erot = 11.8802945474308 | epot = -68.9731778483759 | etot = -48.4966723930797
578000  ekin = 8.98550446115581 |  erot = 11.7917589254122 | epot = -69.2739357776481 | etot = -48.4966723910801
579000  ekin = 9.42040764630597 |  erot = 11.7296557360723 | epot = -69.6467357719199 | etot = -48.4966723895416
580000  ekin = 9.92026928434598 |  erot = 11.6994636247682 | epot = -70.1164052980914 | etot = -48.4966723889772
581000  ekin = 10.4812356258905 |  erot = 11.7036776252683 | epot = -70.6815856415772 | etot = -48.4966723904183
582000  ekin = 11.080374150577 |  erot = 11.7381628956685 | epot = -71.3152094398957 | etot = -48.4966723936502
583000  ekin = 11.6832905431973 |  erot = 11.7898051581633 | epot = -71.9697681008803 | etot = -48.4966723995196
584000  ekin = 12.2265963016827 |  erot = 11.8360805991688 | epot = -72.5593493092204 | etot = -48.4966724083688
585000  ekin = 12.6146924453369 |  erot = 11.8453302035159 | epot = -72.9566950678312 | etot = -48.4966724189784
586000  ekin = 12.7381776542705 |  erot = 11.7813880280218 | epot = -73.0162381105137 | etot = -48.4966724282214
587000  ekin = 12.5064805858387 |  erot = 11.6131474320331 | epot = -72.6163004503553 | etot = -48.4966724324835
588000  ekin = 11.8864734315093 |  erot = 11.3251009525534 | epot = -71.7082468121831 | etot = -48.4966724281203
589000  ekin = 10.9473869135538 |  erot = 10.9235098587122 | epot = -70.3675691878187 | etot = -48.4966724155527
590000  ekin = 9.86035696868346 |  erot = 10.4344934449807 | epot = -68.7915228117055 | etot = -48.4966723980414
591000  ekin = 8.85631509726672 |  erot = 9.89621562654387 | epot = -67.2492031047266 | etot = -48.496672380916
592000  ekin = 8.15513077389435 |  erot = 9.34935781091703 | epot = -66.0011609546941 | etot = -48.4966723698827
593000  ekin = 7.88860666865272 |  erot = 8.8296560978028 | epot = -65.2149351345574 | etot = -48.4966723681019
594000  ekin = 8.05760926838852 |  erot = 8.36349649522857 | epot = -64.9177781379957 | etot = -48.4966723743786
595000  ekin = 8.55177999821204 |  erot = 7.9671599762894 | epot = -65.0156123582378 | etot = -48.4966723837364
596000  ekin = 9.20240795647495 |  erot = 7.64971555625297 | epot = -65.3487959079185 | etot = -48.4966723951905
597000  ekin = 9.82563991120409 |  erot = 7.41365255177947 | epot = -65.7359648663348 | etot = -48.4966724033513
598000  ekin = 10.2831958981717 |  erot = 7.25474571556665 | epot = -66.0346140228146 | etot = -48.4966724090763
599000  ekin = 10.4823548482347 |  erot = 7.1638484460351 | epot = -66.1428757065385 | etot = -48.4966724122687
600000  ekin = 10.377655957786 |  erot = 7.12899314640278 | epot = -66.0033215166179 | etot = -48.4966724124291
601000  ekin = 9.97447570397375 |  erot = 7.1388129594419 | epot = -65.6099610724012 | etot = -48.4966724089856
602000  ekin = 9.33239148589347 |  erot = 7.18604650079846 | epot = -65.0151103886156 | etot = -48.4966724019237
603000  ekin = 8.56059728309279 |  erot = 7.26939823178147 | epot = -64.3266679072965 | etot = -48.4966723924222
604000  ekin = 7.79844425919148 |  erot = 7.39226229323519 | epot = -63.6873789354952 | etot = -48.4966723830686
605000  ekin = 7.18334355705578 |  erot = 7.55875733481732 | epot = -63.2387732679031 | etot = -48.49667237603
606000  ekin = 6.82339792277206 |  erot = 7.7707957220582 | epot = -63.0908660164476 | etot = -48.4966723716173
607000  ekin = 6.78106761292979 |  erot = 8.02640715106415 | epot = -63.3041471354654 | etot = -48.4966723714715
608000  ekin = 7.06650520941551 |  erot = 8.31925929523783 | epot = -63.8824368788167 | etot = -48.4966723741634
609000  ekin = 7.64869014778073 |  erot = 8.64063737882307 | epot = -64.7859999055788 | etot = -48.496672378975
610000  ekin = 8.45880674199743 |  erot = 8.97898134766944 | epot = -65.9344604774024 | etot = -48.4966723877355
611000  ekin = 9.40012632080191 |  erot = 9.32028280860198 | epot = -67.2170815245728 | etot = -48.4966723951689
612000  ekin = 10.3724864441759 |  erot = 9.65110388608677 | epot = -68.5202627333288 | etot = -48.4966724030661
613000  ekin = 11.2738822446447 |  erot = 9.95564408212003 | epot = -69.7261987373746 | etot = -48.4966724106098
614000  ekin = 12.0134738011508 |  erot = 10.2166935701014 | epot = -70.7268397870427 | etot = -48.4966724157905
615000  ekin = 12.5325228236345 |  erot = 10.4217069667676 | epot = -71.4509022073532 | etot = -48.4966724169511
616000  ekin = 12.8258294711863 |  erot = 10.5664745452938 | epot = -71.888976429676 | etot = -48.4966724131959
617000  ekin = 12.9484167494974 |  erot = 10.6576196901107 | epot = -72.1027088453512 | etot = -48.496672405743
618000  ekin = 12.9984754660225 |  erot = 10.7112673341809 | epot = -72.206415197497 | etot = -48.4966723972936
619000  ekin = 13.0833633892487 |  erot = 10.7483523556734 | epot = -72.3283881359276 | etot = -48.4966723910055
620000  ekin = 13.2805224347025 |  erot = 10.7880868966437 | epot = -72.5652817201954 | etot = -48.4966723888492
621000  ekin = 13.6153158271255 |  erot = 10.842478894925 | epot = -72.9544671128933 | etot = -48.4966723908428
622000  ekin = 14.0617052046122 |  erot = 10.912830444937 | epot = -73.4712080456885 | etot = -48.4966723961393
623000  ekin = 14.5562524524265 |  erot = 10.9888554748269 | epot = -74.04178033062 | etot = -48.4966724033666
624000  ekin = 15.0184966480748 |  erot = 11.050152093385 | epot = -74.5653211520246 | etot = -48.4966724105648
625000  ekin = 15.3740067441888 |  erot = 11.0719318061536 | epot = -74.9426109654902 | etot = -48.4966724151478
626000  ekin = 15.579978550083 |  erot = 11.0340258807711 | epot = -75.1106768463705 | etot = -48.4966724155164
627000  ekin = 15.638740686849 |  erot = 10.9274345484232 | epot = -75.0628476476445 | etot = -48.4966724123723
628000  ekin = 15.5850466430048 |  erot = 10.754436861214 | epot = -74.8361559130828 | etot = -48.496672408864
629000  ekin = 15.4527585940637 |  erot = 10.5222074068391 | epot = -74.4716384084112 | etot = -48.4966724075084
630000  ekin = 15.2487640712858 |  erot = 10.2369904052495 | epot = -73.9824268848565 | etot = -48.4966724083212
631000  ekin = 14.9546308598307 |  erot = 9.903505926105 | epot = -73.3548091954509 | etot = -48.4966724095152
632000  ekin = 14.5471297167525 |  erot = 9.52778248753991 | epot = -72.5715846136006 | etot = -48.4966724093081
633000  ekin = 14.0259983537128 |  erot = 9.11935081543741 | epot = -71.6420215736062 | etot = -48.496672404456
634000  ekin = 13.4348934488088 |  erot = 8.69195919081207 | epot = -70.6235250389643 | etot = -48.4966723993434
635000  ekin = 12.8248958276281 |  erot = 8.26734491142408 | epot = -69.5889131330255 | etot = -48.4966723939733
636000  ekin = 12.263479885859 |  erot = 7.86620866043037 | epot = -68.6263609335529 | etot = -48.4966723872635
637000  ekin = 11.8378305091964 |  erot = 7.5087002272802 | epot = -67.8432031169039 | etot = -48.4966723804273
638000  ekin = 11.6379266195501 |  erot = 7.21309192660401 | epot = -67.3476909220623 | etot = -48.4966723759082
639000  ekin = 11.7309756692335 |  erot = 6.99358509588801 | epot = -67.221233138696 | etot = -48.4966723735745
640000  ekin = 12.1483860992889 |  erot = 6.85513197125015 | epot = -67.5001904465607 | etot = -48.4966723760216
641000  ekin = 12.8580389630781 |  erot = 6.7919767646266 | epot = -68.1466881105597 | etot = -48.496672382855
642000  ekin = 13.7676241865134 |  erot = 6.78663459554361 | epot = -69.0509311760141 | etot = -48.4966723939571
643000  ekin = 14.7311148046551 |  erot = 6.81269225389335 | epot = -70.0404794653726 | etot = -48.4966724068241
644000  ekin = 15.5770857379322 |  erot = 6.83998967567365 | epot = -70.9137478319094 | etot = -48.4966724183036
645000  ekin = 16.1508405484928 |  erot = 6.84150218312777 | epot = -71.4890151570643 | etot = -48.4966724254437
646000  ekin = 16.3517339376885 |  erot = 6.79972807948019 | epot = -71.6481344440069 | etot = -48.4966724268382
647000  ekin = 16.1521813974514 |  erot = 6.71011075271394 | epot = -71.3589645730268 | etot = -48.4966724228615
648000  ekin = 15.594145291408 |  erot = 6.5803604164671 | epot = -70.6711781230683 | etot = -48.4966724151932
649000  ekin = 14.7689091850062 |  erot = 6.42695236568379 | epot = -69.6925339567035 | etot = -48.4966724060135
650000  ekin = 13.7897851521383 |  erot = 6.27009414202611 | epot = -68.55655169141 | etot = -48.4966723972456
651000  ekin = 12.7827854663575 |  erot = 6.12965793178853 | epot = -67.4091157838412 | etot = -48.4966723856952
652000  ekin = 11.8480628892327 |  erot = 6.020118220037 | epot = -66.3648534921136 | etot = -48.4966723828439
653000  ekin = 11.0202985972717 |  erot = 5.94865375222212 | epot = -65.4656247314944 | etot = -48.4966723820006
654000  ekin = 10.3091031180359 |  erot = 5.91728137263378 | epot = -64.7230568731695 | etot = -48.4966723824999
[...]
838000  ekin = 8.42094145780207 |  erot = 9.94835266818293 | epot = -66.8659664254129 | etot = -48.4966722994279
839000  ekin = 8.20536768132747 |  erot = 10.0122432401112 | epot = -66.7142832238256 | etot = -48.4966723023869
840000  ekin = 8.10932302107492 |  erot = 10.1009175361069 | epot = -66.7069128625043 | etot = -48.4966723053225
841000  ekin = 8.09432718571758 |  erot = 10.2103111784004 | epot = -66.8013106721689 | etot = -48.4966723080509
842000  ekin = 8.12447284726085 |  erot = 10.3366191337259 | epot = -66.9577642911691 | etot = -48.4966723101823
843000  ekin = 8.17242564620728 |  erot = 10.4770425711205 | epot = -67.1461405288245 | etot = -48.4966723114968
844000  ekin = 8.22381294547816 |  erot = 10.629792150475 | epot = -67.3502774078569 | etot = -48.4966723119037
845000  ekin = 8.27955126816706 |  erot = 10.7936569660386 | epot = -67.5698805457782 | etot = -48.4966723115726
846000  ekin = 8.3545592491441 |  erot = 10.9672036693179 | epot = -67.8184352294059 | etot = -48.4966723109439
847000  ekin = 8.47238635271902 |  erot = 11.1476305354393 | epot = -68.1166891986918 | etot = -48.4966723105335
848000  ekin = 8.65810272946859 |  erot = 11.3297217897777 | epot = -68.4844968297733 | etot = -48.496672310527
849000  ekin = 8.93290208157929 |  erot = 11.5057838942222 | epot = -68.9353582868866 | etot = -48.4966723110851
850000  ekin = 9.30778062411273 |  erot = 11.6667367374171 | epot = -69.4711896741047 | etot = -48.4966723125749
851000  ekin = 9.77385593020599 |  erot = 11.8036289171355 | epot = -70.0741571631139 | etot = -48.4966723157724
852000  ekin = 10.2902091189912 |  erot = 11.9080163478432 | epot = -70.6948977881927 | etot = -48.4966723213583
853000  ekin = 10.7774710928683 |  erot = 11.9704639292169 | epot = -71.2446073510938 | etot = -48.4966723290086
854000  ekin = 11.1286098537036 |  erot = 11.97906905898 | epot = -71.6043512491902 | etot = -48.4966723365066
855000  ekin = 11.2404537269791 |  erot = 11.9198426907242 | epot = -71.6569687591639 | etot = -48.4966723414606
856000  ekin = 11.0533273949739 |  erot = 11.7779965347372 | epot = -71.3279962706774 | etot = -48.4966723409664
857000  ekin = 10.5849568315551 |  erot = 11.5448386362281 | epot = -70.6264678019188 | etot = -48.4966723341357
858000  ekin = 9.93782549827218 |  erot = 11.2226264183448 | epot = -69.6571242391988 | etot = -48.4966723225818
859000  ekin = 9.27338883945288 |  erot = 10.8254282742384 | epot = -68.5954894235314 | etot = -48.4966723098402
860000  ekin = 8.76267013911746 |  erot = 10.3757646970061 | epot = -67.6351071357806 | etot = -48.496672299657
861000  ekin = 8.53556496614099 |  erot = 9.89928979051504 | epot = -66.9315270509465 | etot = -48.4966722942905
862000  ekin = 8.65070986775023 |  erot = 9.42036720159009 | epot = -66.5677493632358 | etot = -48.4966722938955
863000  ekin = 9.09319445538903 |  erot = 8.96001366237534 | epot = -66.5498804149283 | etot = -48.4966722971639
864000  ekin = 9.79331571912724 |  erot = 8.53570874445607 | epot = -66.8256967659166 | etot = -48.4966723023333
865000  ekin = 10.6528659435064 |  erot = 8.16193375091519 | epot = -67.3114720022752 | etot = -48.4966723078536
866000  ekin = 11.570639464325 |  erot = 7.85082867737527 | epot = -67.9181404528874 | etot = -48.4966723111872
867000  ekin = 12.4665855083544 |  erot = 7.61306294093569 | epot = -68.5763207636901 | etot = -48.4966723144001
868000  ekin = 13.2806731165924 |  erot = 7.45693596603301 | epot = -69.234281398526 | etot = -48.4966723159006
869000  ekin = 13.9812766379627 |  erot = 7.38865717386028 | epot = -69.8666061279822 | etot = -48.4966723161591
870000  ekin = 14.5601728096304 |  erot = 7.41145610372963 | epot = -70.4683012297401 | etot = -48.4966723163801
871000  ekin = 15.0180932076698 |  erot = 7.52387391714989 | epot = -71.038639442858 | etot = -48.4966723180383
872000  ekin = 15.3437544362755 |  erot = 7.71754298662019 | epot = -71.5579697452145 | etot = -48.4966723223188
873000  ekin = 15.4947478872821 |  erot = 7.97535948768906 | epot = -71.966779703578 | etot = -48.4966723286068
874000  ekin = 15.4072022287595 |  erot = 8.2734956689639 | epot = -72.1773702326525 | etot = -48.4966723349291
875000  ekin = 15.020282087172 |  erot = 8.58584611975815 | epot = -72.1028005454239 | etot = -48.4966723384937
876000  ekin = 14.3103753087508 |  erot = 8.89001531534499 | epot = -71.6970629611817 | etot = -48.4966723370859
877000  ekin = 13.3177867568478 |  erot = 9.17198109517281 | epot = -70.9864401824435 | etot = -48.4966723304229
878000  ekin = 12.1489812397791 |  erot = 9.42690023128906 | epot = -70.0725537917623 | etot = -48.4966723206941
879000  ekin = 10.9478679197588 |  erot = 9.6557081483487 | epot = -69.100248379687 | etot = -48.4966723115794
880000  ekin = 9.84816823679516 |  erot = 9.86012585903003 | epot = -68.2049664018479 | etot = -48.4966723060227
881000  ekin = 8.93418865224467 |  erot = 10.0399671445578 | epot = -67.4708281012537 | etot = -48.4966723044512
882000  ekin = 8.23233878839253 |  erot = 10.1944686101576 | epot = -66.9234797036965 | etot = -48.4966723051464
883000  ekin = 7.73079374128719 |  erot = 10.3254556487154 | epot = -66.552921695673 | etot = -48.4966723056704
884000  ekin = 7.40639355181605 |  erot = 10.4389581934842 | epot = -66.3420240524018 | etot = -48.4966723071015
885000  ekin = 7.23012884102592 |  erot = 10.5425263249316 | epot = -66.2693274742902 | etot = -48.4966723083327
886000  ekin = 7.17188160921876 |  erot = 10.642387289151 | epot = -66.3109412080379 | etot = -48.4966723096682
887000  ekin = 7.20359993875071 |  erot = 10.7423767431394 | epot = -66.4426489928536 | etot = -48.4966723109635
888000  ekin = 7.30083389975467 |  erot = 10.8444815139791 | epot = -66.6419877256128 | etot = -48.496672311879
889000  ekin = 7.44584662786187 |  erot = 10.9502816348792 | epot = -66.89280057507 | etot = -48.4966723123289
890000  ekin = 7.62600693822587 |  erot = 11.0610746455905 | epot = -67.1837538975772 | etot = -48.4966723137609
891000  ekin = 7.81873873896195 |  erot = 11.1753311188713 | epot = -67.4907421750194 | etot = -48.4966723171862
892000  ekin = 7.97874969022977 |  erot = 11.2859136967632 | epot = -67.7613357094679 | etot = -48.496672322475
893000  ekin = 8.03989394898329 |  erot = 11.3794214304638 | epot = -67.9159877076391 | etot = -48.496672328192
894000  ekin = 7.93829359317738 |  erot = 11.4397930633495 | epot = -67.874758988368 | etot = -48.4966723318412
895000  ekin = 7.64207854916601 |  erot = 11.4549096580947 | epot = -67.5936605300507 | etot = -48.49667232279
896000  ekin = 7.25994289816383 |  erot = 11.4314794339032 | epot = -67.1880946521058 | etot = -48.4966723200388
897000  ekin = 6.87440345864556 |  erot = 11.3807194375686 | epot = -66.7517952113079 | etot = -48.4966723150937
898000  ekin = 6.54072238248417 |  erot = 11.3170504973904 | epot = -66.3544451898888 | etot = -48.4966723100142
899000  ekin = 6.31497972756868 |  erot = 11.2562721803873 | epot = -66.0679242145994 | etot = -48.4966723066434
900000  ekin = 6.23427080300399 |  erot = 11.2089558221733 | epot = -65.9398989310389 | etot = -48.4966723058617
901000  ekin = 6.30716786578097 |  erot = 11.1769913015341 | epot = -65.9808314747661 | etot = -48.496672307451
902000  ekin = 6.51603863955093 |  erot = 11.1540746007347 | epot = -66.1667855507019 | etot = -48.4966723104162
903000  ekin = 6.82764115101323 |  erot = 11.1292357636212 | epot = -66.4535492281892 | etot = -48.4966723135548
904000  ekin = 7.20594581564927 |  erot = 11.0915307948628 | epot = -66.7941489264682 | etot = -48.4966723159561
905000  ekin = 7.62139055379279 |  erot = 11.0338529954735 | epot = -67.1519158666599 | etot = -48.4966723173936
906000  ekin = 8.05314401551287 |  erot = 10.9545483973236 | epot = -67.5043647309916 | etot = -48.4966723181551
907000  ekin = 8.48596871221774 |  erot = 10.8568809787623 | epot = -67.8395220096439 | etot = -48.4966723186638
908000  ekin = 8.90584093622497 |  erot = 10.7475317205779 | epot = -68.1500449759768 | etot = -48.496672319174
909000  ekin = 9.29811876745425 |  erot = 10.6353835932071 | epot = -68.430174680136 | etot = -48.4966723194747
910000  ekin = 9.64930058040102 |  erot = 10.5309201128053 | epot = -68.6768930127811 | etot = -48.4966723195748
911000  ekin = 9.94798521027206 |  erot = 10.4454281278081 | epot = -68.8900856576694 | etot = -48.4966723195893
912000  ekin = 10.1842847326652 |  erot = 10.3896169180022 | epot = -69.0705739706054 | etot = -48.496672319938
913000  ekin = 10.3464242502054 |  erot = 10.3715034502954 | epot = -69.214600021584 | etot = -48.4966723210832
914000  ekin = 10.415948672581 |  erot = 10.3940912361643 | epot = -69.3067122321996 | etot = -48.4966723234544
915000  ekin = 10.3649219643884 |  erot = 10.4538252081787 | epot = -69.3154194992237 | etot = -48.4966723266565
916000  ekin = 10.1612630574872 |  erot = 10.541379127613 | epot = -69.1993145145647 | etot = -48.4966723294645
917000  ekin = 9.79071146014932 |  erot = 10.6444144950078 | epot = -68.9317982857394 | etot = -48.4966723305822
918000  ekin = 9.26089494943152 |  erot = 10.7518360026604 | epot = -68.50940328054 | etot = -48.4966723284481
919000  ekin = 8.61736183484949 |  erot = 10.8585966350586 | epot = -67.9726307918847 | etot = -48.4966723219766
920000  ekin = 7.96059242057683 |  erot = 10.9667865216698 | epot = -67.4240512552557 | etot = -48.496672313009
921000  ekin = 7.4206286581241 |  erot = 11.0831224393024 | epot = -67.0004234023807 | etot = -48.4966723049542
922000  ekin = 7.11192603619116 |  erot = 11.2138650622652 | epot = -66.8224633999915 | etot = -48.4966723015352
923000  ekin = 7.08988023823866 |  erot = 11.3600862496967 | epot = -66.9466387905908 | etot = -48.4966723026554
924000  ekin = 7.33691450658751 |  erot = 11.5138164852619 | epot = -67.3474033038381 | etot = -48.4966723119887
925000  ekin = 7.75066983589846 |  erot = 11.6552585826699 | epot = -67.9026007405179 | etot = -48.4966723219496
926000  ekin = 8.19653350736388 |  erot = 11.7619530783413 | epot = -68.4551589169988 | etot = -48.4966723312935
927000  ekin = 8.54738329615754 |  erot = 11.8134968305718 | epot = -68.85755246456 | etot = -48.4966723378307
928000  ekin = 8.71145227576691 |  erot = 11.7955386631328 | epot = -69.003663279345 | etot = -48.4966723404453
929000  ekin = 8.64121811923355 |  erot = 11.7025442551876 | epot = -68.8404347141063 | etot = -48.4966723396852
930000  ekin = 8.33447879254349 |  erot = 11.5389737735958 | epot = -68.3701249012194 | etot = -48.4966723350801
931000  ekin = 7.84128687194392 |  erot = 11.3199153614123 | epot = -67.6578745612919 | etot = -48.4966723279357
932000  ekin = 7.24436701476842 |  erot = 11.0677318789856 | epot = -66.8087712135761 | etot = -48.496672319822
933000  ekin = 6.63984712977447 |  erot = 10.8074687757107 | epot = -65.9439882178313 | etot = -48.4966723123461
934000  ekin = 6.11754592438748 |  erot = 10.5621552883607 | epot = -65.1763735195052 | etot = -48.496672306757
935000  ekin = 5.74541764898225 |  erot = 10.34938551237 | epot = -64.5914754648923 | etot = -48.4966723035401
936000  ekin = 5.56181701675302 |  erot = 10.1798783918205 | epot = -64.2383677114073 | etot = -48.4966723028338
937000  ekin = 5.57387639585913 |  erot = 10.0571518050112 | epot = -64.1277005051359 | etot = -48.4966723042655
938000  ekin = 5.76140455379856 |  erot = 9.97823911828305 | epot = -64.236315979431 | etot = -48.4966723073494
939000  ekin = 6.08318987722958 |  erot = 9.93455888285682 | epot = -64.5144210718922 | etot = -48.4966723118058
940000  ekin = 6.48293884697858 |  erot = 9.91175572441846 | epot = -64.8913668887089 | etot = -48.4966723173118
941000  ekin = 6.89458666484238 |  erot = 9.89006577399368 | epot = -65.2813247623015 | etot = -48.4966723234654
942000  ekin = 7.24869443052279 |  erot = 9.84545862006442 | epot = -65.5908253801216 | etot = -48.4966723295344
943000  ekin = 7.48274007882591 |  erot = 9.75224430353465 | epot = -65.7316567165331 | etot = -48.4966723341725
944000  ekin = 7.55661078131352 |  erot = 9.58809869983158 | epot = -65.6413818168876 | etot = -48.4966723357425
945000  ekin = 7.47011756107085 |  erot = 9.34043579086029 | epot = -65.3072256849916 | etot = -48.4966723330605
946000  ekin = 7.273865321028 |  erot = 9.01155536829775 | epot = -64.7820930156391 | etot = -48.4966723263134
947000  ekin = 7.06319369696864 |  erot = 8.61969480918984 | epot = -64.1795608237464 | etot = -48.4966723175879
948000  ekin = 6.95249218762552 |  erot = 8.1947907503852 | epot = -63.6439552473951 | etot = -48.4966723093844
949000  ekin = 7.04165184471633 |  erot = 7.77196767263426 | epot = -63.3102918217679 | etot = -48.4966723044174
950000  ekin = 7.38393234755081 |  erot = 7.38215863331876 | epot = -63.2627632845086 | etot = -48.496672303639
951000  ekin = 7.97686792756373 |  erot = 7.04490011740168 | epot = -63.5184403512779 | etot = -48.4966723063125
952000  ekin = 8.77198923721725 |  erot = 6.76886819752576 | epot = -64.0375297460899 | etot = -48.4966723113469
953000  ekin = 9.68951090427572 |  erot = 6.55318208658859 | epot = -64.7393653093366 | etot = -48.4966723184723
954000  ekin = 10.6255451802916 |  erot = 6.3913913459249 | epot = -65.5136088525581 | etot = -48.4966723263416
955000  ekin = 11.4591959851687 |  erot = 6.27379827911305 | epot = -66.2296665987093 | etot = -48.4966723344275
956000  ekin = 12.0705908790001 |  erot = 6.18965544998381 | epot = -66.7569186703808 | etot = -48.4966723413969
957000  ekin = 12.3578057598208 |  erot = 6.13109120830291 | epot = -66.9855693134195 | etot = -48.4966723452957
958000  ekin = 12.2639561669414 |  erot = 6.09526075827776 | epot = -66.8558892695242 | etot = -48.4966723443051
959000  ekin = 11.8028932828189 |  erot = 6.08530913168601 | epot = -66.3848747518379 | etot = -48.4966723373329
960000  ekin = 11.0657748729573 |  erot = 6.10961272607109 | epot = -65.6720599259682 | etot = -48.4966723269398
961000  ekin = 10.1976851857055 |  erot = 6.17940626040707 | epot = -64.8737637614838 | etot = -48.4966723153712
962000  ekin = 9.3600605591325 |  erot = 6.3057643440762 | epot = -64.1624972094639 | etot = -48.4966723062551
963000  ekin = 8.68052625282738 |  erot = 6.49616547141891 | epot = -63.6733640264431 | etot = -48.4966723021968
964000  ekin = 8.21670812986693 |  erot = 6.75219993747893 | epot = -63.4655803708714 | etot = -48.4966723035256
965000  ekin = 7.95112951689758 |  erot = 7.06933978185901 | epot = -63.5171416071181 | etot = -48.4966723083615
966000  ekin = 7.81882046085045 |  erot = 7.43840285115728 | epot = -63.7538956257306 | etot = -48.4966723137229
967000  ekin = 7.74912903333712 |  erot = 7.84702228296257 | epot = -64.0928236349093 | etot = -48.4966723186096
968000  ekin = 7.67539244929427 |  erot = 8.2817783315788 | epot = -64.4538431026887 | etot = -48.4966723218157
969000  ekin = 7.55990272933228 |  erot = 8.72822682124893 | epot = -64.7848018741723 | etot = -48.4966723235911
970000  ekin = 7.38809514825798 |  erot = 9.17062532974348 | epot = -65.0553928031031 | etot = -48.4966723251016
971000  ekin = 7.15239239093516 |  erot = 9.5918582199634 | epot = -65.2409229373407 | etot = -48.4966723264421
972000  ekin = 6.85180496082561 |  erot = 9.97461998815792 | epot = -65.3230972761894 | etot = -48.4966723272059
973000  ekin = 6.49404713372413 |  erot = 10.3038859967524 | epot = -65.2946054572594 | etot = -48.4966723267829
974000  ekin = 6.10144997555303 |  erot = 10.569687686806 | epot = -65.167809986746 | etot = -48.4966723243869
975000  ekin = 5.7182786315203 |  erot = 10.768092349693 | epot = -64.9830433018387 | etot = -48.4966723206254
976000  ekin = 5.40201312509425 |  erot = 10.9003005403961 | epot = -64.7989859821382 | etot = -48.4966723166479
977000  ekin = 5.20833588347279 |  erot = 10.9708214147636 | epot = -64.6758296123611 | etot = -48.4966723141247
978000  ekin = 5.16924582116534 |  erot = 10.9846732105549 | epot = -64.6505913459972 | etot = -48.496672314277
979000  ekin = 5.27779878020043 |  erot = 10.945517081853 | epot = -64.7199881787748 | etot = -48.4966723167214
980000  ekin = 5.49322046289924 |  erot = 10.8569988038435 | epot = -64.8468915865075 | etot = -48.4966723197648
981000  ekin = 5.76179864625006 |  erot = 10.726517718139 | epot = -64.9849886857167 | etot = -48.4966723213276
982000  ekin = 6.04348590887716 |  erot = 10.5685834925864 | epot = -65.108741721762 | etot = -48.4966723202984
983000  ekin = 6.32848466399102 |  erot = 10.4050435743868 | epot = -65.2302005553701 | etot = -48.4966723169923
984000  ekin = 6.63689937913401 |  erot = 10.261739198621 | epot = -65.3953108904743 | etot = -48.4966723127193
985000  ekin = 7.00519513059825 |  erot = 10.1634367407842 | epot = -65.665304180403 | etot = -48.4966723090205
986000  ekin = 7.4679296554649 |  erot = 10.1293593696239 | epot = -66.0939613322116 | etot = -48.4966723071228
987000  ekin = 8.04175238650646 |  erot = 10.1705679690259 | epot = -66.7089926632583 | etot = -48.496672307726
988000  ekin = 8.71523237497362 |  erot = 10.2892285288406 | epot = -67.5011332148044 | etot = -48.4966723109902
989000  ekin = 9.44555554304866 |  erot = 10.4792258293264 | epot = -68.4214536920605 | etot = -48.4966723196855
990000  ekin = 10.1473148558013 |  erot = 10.7224786977188 | epot = -69.366465881116 | etot = -48.4966723275959
991000  ekin = 10.715685312484 |  erot = 10.9958515480764 | epot = -70.2082091961247 | etot = -48.4966723355643
992000  ekin = 11.0552138398377 |  erot = 11.2781950378136 | epot = -70.83008121936 | etot = -48.4966723417087
993000  ekin = 11.0952058500046 |  erot = 11.5520851535702 | epot = -71.1439633477801 | etot = -48.4966723442053
994000  ekin = 10.8115610929625 |  erot = 11.8083197793074 | epot = -71.1165532143329 | etot = -48.496672342063
995000  ekin = 10.2380910461207 |  erot = 12.0483835959382 | epot = -70.7831469777531 | etot = -48.4966723356942
996000  ekin = 9.46083677928995 |  erot = 12.2834739182393 | epot = -70.2409830243551 | etot = -48.4966723268259
997000  ekin = 8.59669860536627 |  erot = 12.5302960403897 | epot = -69.6236669634976 | etot = -48.4966723177416
998000  ekin = 7.76544234240271 |  erot = 12.8061283055596 | epot = -69.0682429582301 | etot = -48.4966723102677
999000  ekin = 7.06575293134989 |  erot = 13.1250004097336 | epot = -68.6874256465858 | etot = -48.4966723055023
1000000  ekin = 6.56133019938521 |  erot = 13.4950386929711 | epot = -68.55304119608 | etot = -48.4966723037237
   1000000   244.5767      -69.23317       0.68012891    -61.991711     -0.012778323    39304000     
Loop time of 12.2781 on 4 procs for 1000000 steps with 10 atoms

Performance: 120.050 ns/day, 0.200 hours/ns, 81445.689 timesteps/s, 814.457 katom-step/s
99.7% CPU use with 4 MPI tasks x no OpenMP threads

MPI task timing breakdown:
Section |  min time  |  avg time  |  max time  |%varavg| %total
---------------------------------------------------------------
Pair    | 3.2469     | 4.9515     | 7.0981     |  62.1 | 40.33
Bond    | 0.1954     | 0.25049    | 0.29531    |   8.8 |  2.04
Neigh   | 0.004031   | 0.0040985  | 0.00415    |   0.1 |  0.03
Comm    | 2.8164     | 5.2593     | 6.993      |  66.2 | 42.83
Output  | 0.0667     | 0.070533   | 0.078394   |   1.7 |  0.57
Modify  | 0.43406    | 0.47672    | 0.51187    |   5.0 |  3.88
Other   |            | 1.265      |            |       | 10.31

Nlocal:            2.5 ave           3 max           2 min
Histogram: 2 0 0 0 0 0 0 0 0 2
Nghost:            7.5 ave           8 max           7 min
Histogram: 2 0 0 0 0 0 0 0 0 2
Neighs:           9.25 ave          16 max           2 min
Histogram: 1 0 1 0 0 0 0 0 1 1

Total # of neighbors = 37
Ave neighs/atom = 3.7
Ave special neighs/atom = 3.6
Neighbor list builds = 1000
Dangerous builds = 0

write_data last_config.${number}.* nocoeff
write_data last_config.3.* nocoeff
System init for write_data ...
Generated 0 of 6 mixed pair_coeff terms from geometric mixing rule
#write_restart last_config.${number}.*
Total wall time: 0:00:12
