LAMMPS (11 Feb 2026 - Development - patch_10Dec2025-1372-ged4f75871d-modified)
# LAMMPS input file in real units via oxdna lj2real.py, date 2026-03-03
variable number	equal 3
variable ofreq	equal 1000
variable efreq	equal 1000
variable T      equal 300.0
variable rhos   equal 0.2

units real

dimension 3

newton on

boundary  p p p

atom_style hybrid bond ellipsoid oxdna
WARNING: Atom style hybrid defines both, per-type and per-atom masses; both must be set, but only per-atom masses will be used (../atom_vec_hybrid.cpp:132)
atom_modify sort 0 8.518

# Pair interactions require lists of neighbours to be calculated
neighbor 17.036 bin
neigh_modify every 1 delay 0 check yes

read_data data.duplex3
Reading data file ...
  orthogonal box = (-170 -170 -170) to (170 170 170)
  1 by 1 by 1 MPI processor grid
  reading atoms ...
  10 atoms
  reading velocities ...
  10 velocities
  scanning bonds ...
  1 = max bonds/atom
  10 ellipsoids
  orthogonal box = (-170 -170 -170) to (170 170 170)
  1 by 1 by 1 MPI processor grid
  reading bonds ...
  8 bonds
Finding 1-2 1-3 1-4 neighbors ...
  special bond factors lj:    0        0        0       
  special bond factors coul:  0        0        0       
     2 = max # of 1-2 neighbors
     2 = max # of 1-3 neighbors
     2 = max # of 1-4 neighbors
     4 = max # of special neighbors
  special bonds CPU = 0.000 seconds
  read_data CPU = 0.008 seconds

set atom * mass 100.0
Setting atom values ...
  10 settings made for mass

group all type 1 4
10 atoms in group all

# oxDNA2 bond interactions - FENE backbone
bond_style oxdna2/fene
bond_coeff * 11.923225551844991 2.1295 6.4430152
special_bonds lj 0 1 1
Finding 1-2 1-3 1-4 neighbors ...
  special bond factors lj:    0        1        1       
  special bond factors coul:  0        0        0       
     2 = max # of 1-2 neighbors
     2 = max # of 1-3 neighbors
     2 = max # of 1-4 neighbors
     4 = max # of special neighbors
  special bonds CPU = 0.000 seconds

# oxDNA2 pair interactions
pair_style hybrid/overlay oxdna2/excv oxdna2/stk oxdna2/hbond oxdna2/xstk oxdna2/coaxstk oxdna2/dh
pair_coeff * * oxdna2/excv 11.923225551844991 5.9626 5.74965 11.923225551844991 4.38677 4.259 11.923225551844991 2.81094 2.72576
pair_coeff * * oxdna2/stk seqdep ${T} 8.061888956879992 0.005309213617811 0.70439070204273 3.4072 7.6662 2.72576 6.3885 1.3 0.0 0.8 0.9 0.0 0.95 0.9 0.0 0.95 2.0 0.65 2.0 0.65
pair_coeff * * oxdna2/stk seqdep 300 8.061888956879992 0.005309213617811 0.70439070204273 3.4072 7.6662 2.72576 6.3885 1.3 0.0 0.8 0.9 0.0 0.95 0.9 0.0 0.95 2.0 0.65 2.0 0.65
pair_coeff * * oxdna2/hbond seqdep 0.0 0.93918760272364 3.4072 6.3885 2.89612 5.9626 1.5 0.0 0.7 1.5 0.0 0.7 1.5 0.0 0.7 0.46 3.141592654 0.7 4.0 1.570796327 0.45 4.0 1.570796327 0.45
pair_coeff 1 4 oxdna2/hbond seqdep 6.365810122130042 0.93918760272364 3.4072 6.3885 2.89612 5.9626 1.5 0.0 0.7 1.5 0.0 0.7 1.5 0.0 0.7 0.46 3.141592654 0.7 4.0 1.570796327 0.45 4.0 1.570796327 0.45
pair_coeff 2 3 oxdna2/hbond seqdep 6.365810122130042 0.93918760272364 3.4072 6.3885 2.89612 5.9626 1.5 0.0 0.7 1.5 0.0 0.7 1.5 0.0 0.7 0.46 3.141592654 0.7 4.0 1.570796327 0.45 4.0 1.570796327 0.45
pair_coeff * * oxdna2/xstk 3.902852173937567 4.89785 5.74965 4.21641 5.57929 2.25 0.791592654 0.58 1.7 1.0 0.68 1.7 1.0 0.68 1.5 0.0 0.65 1.7 0.875 0.68 1.7 0.875 0.68
pair_coeff * * oxdna2/coaxstk 4.806670572112583 3.4072 5.1108 1.87396 4.94044 2.0 2.891592653589793 0.65 1.3 0.0 0.8 0.9 0.0 0.95 0.9 0.0 0.95 40.0 3.116592653589793
pair_coeff * * oxdna2/dh ${T} ${rhos} 0.815
pair_coeff * * oxdna2/dh 300 ${rhos} 0.815
pair_coeff * * oxdna2/dh 300 0.2 0.815

# NVE ensemble
fix 1 all nve/asphere
#fix 2 all langevin ${T} ${T} 4263.83 457145 angmom 10

timestep 0.017055

#comm_style tiled
fix 3 all balance 1000 1.03 shift xyz 10 1.03
comm_modify cutoff 32.4

compute quat all property/atom quatw quati quatj quatk

compute erot all erotate/asphere
compute ekin all ke
compute epot all pe
variable erot equal c_erot
variable ekin equal c_ekin
variable epot equal c_epot
variable etot equal c_erot+c_ekin+c_epot
fix 5 all print ${efreq} "$(step)  ekin = ${ekin} |  erot = ${erot} | epot = ${epot} | etot = ${etot}" screen yes
fix 5 all print 1000 "$(step)  ekin = ${ekin} |  erot = ${erot} | epot = ${epot} | etot = ${etot}" screen yes

dump out all custom ${ofreq} out.${number}.lammpstrj id mol type x y z ix iy iz vx vy vz c_quat[1] c_quat[2] c_quat[3] c_quat[4] angmomx angmomy angmomz
dump out all custom 1000 out.${number}.lammpstrj id mol type x y z ix iy iz vx vy vz c_quat[1] c_quat[2] c_quat[3] c_quat[4] angmomx angmomy angmomz
dump out all custom 1000 out.3.lammpstrj id mol type x y z ix iy iz vx vy vz c_quat[1] c_quat[2] c_quat[3] c_quat[4] angmomx angmomy angmomz
dump_modify out sort id
dump_modify out format line "%d %d %d  %22.15le %22.15le %22.15le  %d %d %d  %22.15le %22.15le %22.15le  %22.15le %22.15le %22.15le %22.15le  %22.15le %22.15le %22.15le"

run 10000
Generated 0 of 6 mixed pair_coeff terms from geometric mixing rule
Neighbor list info ...
  update: every = 1 steps, delay = 0 steps, check = yes
  max neighbors/atom: 2000, page size: 100000
  master list distance cutoff = 48.032697
  ghost atom cutoff = 48.032697
  binsize = 24.016348, bins = 15 15 15
  5 neighbor lists, perpetual/occasional/extra = 5 0 0
  (1) pair oxdna2/excv, perpetual
      attributes: half, newton on
      pair build: half/bin/newton
      stencil: half/bin/3d
      bin: standard
  (2) pair oxdna2/hbond, perpetual, copy from (1)
      attributes: half, newton on
      pair build: copy
      stencil: none
      bin: none
  (3) pair oxdna2/xstk, perpetual, copy from (1)
      attributes: half, newton on
      pair build: copy
      stencil: none
      bin: none
  (4) pair oxdna2/coaxstk, perpetual, copy from (1)
      attributes: half, newton on
      pair build: copy
      stencil: none
      bin: none
  (5) pair oxdna2/dh, perpetual, copy from (1)
      attributes: half, newton on
      pair build: copy
      stencil: none
      bin: none
WARNING: Communication cutoff adjusted to 48.03269686950012 (../comm.cpp:703)
0  ekin = 7.03620291052537 |  erot = 12.9908597192121 | epot = -68.5175314009063 | etot = -48.4904687711687
Per MPI rank memory allocation (min/avg/max) = 8.695 | 8.695 | 8.695 Mbytes
   Step          Temp          E_pair         E_mol          TotEng         Press          Volume    
         0   262.27781     -73.083438      4.5659066     -61.481328     -0.005178711    39304000     
1000  ekin = 6.48007350072478 |  erot = 13.3061733281382 | epot = -68.2767155963165 | etot = -48.4904687674535
2000  ekin = 6.03704793271522 |  erot = 13.6599504345626 | epot = -68.1874671319142 | etot = -48.4904687646364
3000  ekin = 5.75268089703799 |  erot = 14.0463862872167 | epot = -68.289535948747 | etot = -48.4904687644922
4000  ekin = 5.63886050734495 |  erot = 14.4558356232096 | epot = -68.5851648971923 | etot = -48.4904687666378
5000  ekin = 5.67656029928255 |  erot = 14.8747057569328 | epot = -69.041734826657 | etot = -48.4904687704416
6000  ekin = 5.82350271777534 |  erot = 15.2876630596777 | epot = -69.6016345520426 | etot = -48.4904687745896
7000  ekin = 6.03024494549364 |  erot = 15.6810768352607 | epot = -70.2017905584808 | etot = -48.4904687777265
8000  ekin = 6.25749868113124 |  erot = 16.0462032205377 | epot = -70.7941706807062 | etot = -48.4904687790373
9000  ekin = 6.48806772297599 |  erot = 16.3805951971804 | epot = -71.3591316990412 | etot = -48.4904687788848
10000  ekin = 6.72285898455121 |  erot = 16.6854204057282 | epot = -71.8987481681563 | etot = -48.4904687778769
     10000   250.59776     -74.871019      2.972271      -65.175889      0.00013815727  39304000     
Loop time of 0.069783 on 1 procs for 10000 steps with 10 atoms

Performance: 211.162 ns/day, 0.114 hours/ns, 143301.377 timesteps/s, 1.433 Matom-step/s
99.7% CPU use with 1 MPI tasks x no OpenMP threads

MPI task timing breakdown:
Section |  min time  |  avg time  |  max time  |%varavg| %total
---------------------------------------------------------------
Pair    | 0.056565   | 0.056565   | 0.056565   |   0.0 | 81.06
Bond    | 0.002774   | 0.002774   | 0.002774   |   0.0 |  3.98
Neigh   | 3.6e-05    | 3.6e-05    | 3.6e-05    |   0.0 |  0.05
Comm    | 0.00092    | 0.00092    | 0.00092    |   0.0 |  1.32
Output  | 0.000529   | 0.000529   | 0.000529   |   0.0 |  0.76
Modify  | 0.008106   | 0.008106   | 0.008106   |   0.0 | 11.62
Other   |            | 0.000853   |            |       |  1.22

Nlocal:             10 ave          10 max          10 min
Histogram: 1 0 0 0 0 0 0 0 0 0
Nghost:              0 ave           0 max           0 min
Histogram: 1 0 0 0 0 0 0 0 0 0
Neighs:             45 ave          45 max          45 min
Histogram: 1 0 0 0 0 0 0 0 0 0

Total # of neighbors = 45
Ave neighs/atom = 4.5
Ave special neighs/atom = 3.6
Neighbor list builds = 10
Dangerous builds = 0

write_data last_config.${number}.* nocoeff
write_data last_config.3.* nocoeff
System init for write_data ...
Generated 0 of 6 mixed pair_coeff terms from geometric mixing rule
#write_restart last_config.${number}.*
Total wall time: 0:00:00
