LAMMPS (30 Mar 2026 - Development - patch_30Mar2026-388-g36190e700a)
OMP_NUM_THREADS environment is not set. Defaulting to 1 thread.
  using 1 OpenMP thread(s) per MPI task
# Test correctness GCMC restart
# Restart should exactly reproduce original simulation

### LJ ###

variable        mu equal -1.25
variable        temp equal 2.0
variable        disp equal 1.0
variable        lbox equal 5.0
variable        nequil equal 100
variable        nsteps equal 1000
variable        restartfile string restart.gcmc.lj

# global model settings

units           lj
atom_style      atomic
pair_style      lj/cut 3.0
pair_modify     tail no # turn of to avoid triggering full_energy

# box and other settings

region          box block 0 ${lbox} 0 ${lbox} 0 ${lbox}
region          box block 0 5 0 ${lbox} 0 ${lbox}
region          box block 0 5 0 5 0 ${lbox}
region          box block 0 5 0 5 0 5
create_box      1 box
Created orthogonal box = (0 0 0) to (5 5 5)
  1 by 2 by 2 MPI processor grid
group           gcmcgroup type 1
0 atoms in group gcmcgroup
pair_coeff      * * 1.0 1.0
mass            * 1.0

# gcmc

fix             mygcmc gcmcgroup gcmc 1 100 100 1 29494 ${temp} ${mu} ${disp}
fix             mygcmc gcmcgroup gcmc 1 100 100 1 29494 2 ${mu} ${disp}
fix             mygcmc gcmcgroup gcmc 1 100 100 1 29494 2 -1.25 ${disp}
fix             mygcmc gcmcgroup gcmc 1 100 100 1 29494 2 -1.25 1

# output

compute_modify  thermo_temp dynamic/dof yes
thermo_style    custom step temp press pe ke density atoms

# run equilibration and write restart

run             ${nequil}
run             100
WARNING: No fixes with time integration, atoms won't move
For more information see https://docs.lammps.org/err0028 (src/verlet.cpp:60)
Generated 0 of 0 mixed pair_coeff terms from geometric mixing rule
Neighbor list info ...
  update: every = 1 steps, delay = 0 steps, check = yes
  max neighbors/atom: 2000, page size: 100000
  master list distance cutoff = 3.3
  ghost atom cutoff = 3.3
  binsize = 1.65, bins = 4 4 4
  1 neighbor lists, perpetual/occasional/extra = 1 0 0
  (1) pair lj/cut, perpetual
      attributes: half, newton on
      pair build: half/bin/atomonly/newton
      stencil: half/bin/3d
      bin: standard
Per MPI rank memory allocation (min/avg/max) = 0.4492 | 0.4492 | 0.4492 Mbytes
   Step          Temp          Press          PotEng         KinEng        Density        Atoms   
         0   0              0              0             -0              0                      0 
       100   2.1078187      1.1020099     -2.9854213      3.1098965      0.488                 61 
Loop time of 0.134974 on 4 procs for 100 steps with 61 atoms

Performance: 320060.744 tau/day, 740.881 timesteps/s, 45.194 katom-step/s
99.6% CPU use with 4 MPI tasks x 1 OpenMP threads

MPI task timing breakdown:
Section |  min time  |  avg time  |  max time  |%varavg| %total
---------------------------------------------------------------
Pair    | 0.00065144 | 0.00072787 | 0.00076715 |   0.0 |  0.54
Neigh   | 0.002471   | 0.0025327  | 0.0025627  |   0.1 |  1.88
Comm    | 0.0028381  | 0.0029325  | 0.0030878  |   0.2 |  2.17
Output  | 1.3722e-05 | 1.59e-05   | 2.225e-05  |   0.0 |  0.01
Modify  | 0.12865    | 0.12866    | 0.12867    |   0.0 | 95.32
Other   |            | 0.000102   |            |       |  0.08

Nlocal:          15.25 ave          19 max          13 min
Histogram: 2 0 0 0 0 1 0 0 0 1
Nghost:          450.5 ave         470 max         431 min
Histogram: 1 0 0 0 1 1 0 0 0 1
Neighs:         550.75 ave         684 max         459 min
Histogram: 2 0 0 0 0 0 1 0 0 1

Total # of neighbors = 2203
Ave neighs/atom = 36.114754
Neighbor list builds = 100
Dangerous builds = 0
write_restart   ${restartfile}
write_restart   restart.gcmc.lj
System init for write_restart ...
Generated 0 of 0 mixed pair_coeff terms from geometric mixing rule

# run simulation, store reference values, and clear simulation

run             ${nsteps}
run             1000
WARNING: No fixes with time integration, atoms won't move
For more information see https://docs.lammps.org/err0028 (src/verlet.cpp:60)
Generated 0 of 0 mixed pair_coeff terms from geometric mixing rule
Per MPI rank memory allocation (min/avg/max) = 3.141 | 3.145 | 3.149 Mbytes
   Step          Temp          Press          PotEng         KinEng        Density        Atoms   
       100   2.1078187      1.1020099     -2.9854213      3.1098965      0.488                 61 
      1100   2.0377985      0.82361869    -3.5056264      3.0130306      0.56                  70 
Loop time of 1.31684 on 4 procs for 1000 steps with 70 atoms

Performance: 328058.245 tau/day, 759.394 timesteps/s, 53.158 katom-step/s
99.9% CPU use with 4 MPI tasks x 1 OpenMP threads

MPI task timing breakdown:
Section |  min time  |  avg time  |  max time  |%varavg| %total
---------------------------------------------------------------
Pair    | 0.006854   | 0.0074293  | 0.0078593  |   0.5 |  0.56
Neigh   | 0.024163   | 0.024724   | 0.025087   |   0.2 |  1.88
Comm    | 0.027309   | 0.028152   | 0.029336   |   0.5 |  2.14
Output  | 1.427e-05  | 1.6923e-05 | 2.4318e-05 |   0.0 |  0.00
Modify  | 1.2557     | 1.2558     | 1.2558     |   0.0 | 95.36
Other   |            | 0.0007273  |            |       |  0.06

Nlocal:           17.5 ave          22 max          14 min
Histogram: 1 0 0 2 0 0 0 0 0 1
Nghost:          522.5 ave         529 max         518 min
Histogram: 1 0 1 1 0 0 0 0 0 1
Neighs:            727 ave         876 max         611 min
Histogram: 1 0 0 2 0 0 0 0 0 1

Total # of neighbors = 2908
Ave neighs/atom = 41.542857
Neighbor list builds = 1000
Dangerous builds = 0
variable        tmp equal temp
variable        tref equal ${tmp}
variable        tref equal 2.03779849781659
variable        tmp equal press
variable        pref equal ${tmp}
variable        pref equal 0.823618694046359
variable        tmp equal sum(f_mygcmc)
variable        gcmcref equal ${tmp}
variable        gcmcref equal 240838
clear
OMP_NUM_THREADS environment is not set. Defaulting to 1 thread.
  using 1 OpenMP thread(s) per MPI task

# rerun simulation from restart

read_restart    ${restartfile}
read_restart    restart.gcmc.lj
Reading restart file ...
  restart file = 30 Mar 2026, LAMMPS = 30 Mar 2026
  restoring atom style atomic from restart
  orthogonal box = (0 0 0) to (5 5 5)
  1 by 2 by 2 MPI processor grid
  restoring pair style lj/cut from restart
  61 atoms
  read_restart CPU = 0.001 seconds

# gcmc

fix             mygcmc gcmcgroup gcmc 1 100 100 1 29494 ${temp} ${mu} ${disp}
fix             mygcmc gcmcgroup gcmc 1 100 100 1 29494 2 ${mu} ${disp}
fix             mygcmc gcmcgroup gcmc 1 100 100 1 29494 2 -1.25 ${disp}
fix             mygcmc gcmcgroup gcmc 1 100 100 1 29494 2 -1.25 1
Resetting global fix info from restart file:
  fix style: gcmc, fix ID: mygcmc

# output

compute_modify  thermo_temp dynamic/dof yes
thermo_style    custom step temp press pe ke density atoms

# rerun simulation from restart, measure errors, and clear

run             ${nsteps}
run             1000
WARNING: No fixes with time integration, atoms won't move
For more information see https://docs.lammps.org/err0028 (src/verlet.cpp:60)
Generated 0 of 0 mixed pair_coeff terms from geometric mixing rule
All restart file global fix info was re-assigned
Neighbor list info ...
  update: every = 1 steps, delay = 0 steps, check = yes
  max neighbors/atom: 2000, page size: 100000
  master list distance cutoff = 3.3
  ghost atom cutoff = 3.3
  binsize = 1.65, bins = 4 4 4
  1 neighbor lists, perpetual/occasional/extra = 1 0 0
  (1) pair lj/cut, perpetual
      attributes: half, newton on
      pair build: half/bin/atomonly/newton
      stencil: half/bin/3d
      bin: standard
Per MPI rank memory allocation (min/avg/max) = 3.077 | 3.078 | 3.078 Mbytes
   Step          Temp          Press          PotEng         KinEng        Density        Atoms   
       100   2.1078187      1.1020099     -2.9854213      3.1098965      0.488                 61 
      1100   2.0377985      0.82361869    -3.5056264      3.0130306      0.56                  70 
Loop time of 1.32318 on 4 procs for 1000 steps with 70 atoms

Performance: 326487.147 tau/day, 755.757 timesteps/s, 52.903 katom-step/s
99.9% CPU use with 4 MPI tasks x 1 OpenMP threads

MPI task timing breakdown:
Section |  min time  |  avg time  |  max time  |%varavg| %total
---------------------------------------------------------------
Pair    | 0.0067929  | 0.0076642  | 0.0087044  |   0.8 |  0.58
Neigh   | 0.024861   | 0.025304   | 0.025624   |   0.2 |  1.91
Comm    | 0.027649   | 0.02907    | 0.030017   |   0.5 |  2.20
Output  | 1.3749e-05 | 1.6362e-05 | 2.3904e-05 |   0.0 |  0.00
Modify  | 1.2603     | 1.2604     | 1.2604     |   0.0 | 95.25
Other   |            | 0.0007459  |            |       |  0.06

Nlocal:           17.5 ave          22 max          14 min
Histogram: 1 0 0 2 0 0 0 0 0 1
Nghost:          522.5 ave         529 max         518 min
Histogram: 1 0 1 1 0 0 0 0 0 1
Neighs:            727 ave         876 max         611 min
Histogram: 1 0 0 2 0 0 0 0 0 1

Total # of neighbors = 2908
Ave neighs/atom = 41.542857
Neighbor list builds = 1000
Dangerous builds = 0
variable        tmp equal temp
variable        terror equal ${tmp} - v_tref
variable        terror equal 2.03779849781659 - v_tref
variable        tmp equal press
variable        perror equal ${tmp} - v_pref
variable        perror equal 0.823618694046359 - v_pref
variable        tmp equal sum(f_mygcmc)
variable        gcmcerror equal ${tmp} - v_gcmcref
variable        gcmcerror equal 240838 - v_gcmcref
clear
OMP_NUM_THREADS environment is not set. Defaulting to 1 thread.
  using 1 OpenMP thread(s) per MPI task

# report restart errors

print "LJ: change in temperature from restart = ${terror} "
LJ: change in temperature from restart = 0 
print "LJ: change in pressure from restart = ${perror} "
LJ: change in pressure from restart = 0 
print "LJ: change in fix GCMC from restart = ${gcmcerror} "
LJ: change in fix GCMC from restart = 0 

#### H2O ###

variable        mu equal -8.1
variable	disp equal 0.5
variable        temp equal 338.0
variable        lbox equal 10.0
variable        spacing equal 5.0
variable        nequil equal 100
variable        nsteps equal 100
variable        nevery equal 10
variable        restartfile string restart.gcmc.h2o

# global model settings

units           real
atom_style      full
boundary        p p p
pair_style      lj/cut/coul/long  14
pair_modify     mix arithmetic tail yes
kspace_style    ewald 0.0001
bond_style      harmonic
angle_style     harmonic

# box, start molecules on simple cubic lattice

lattice 	sc ${spacing}
lattice 	sc 5
Lattice spacing in x,y,z = 5 5 5
region          box block 0 ${lbox} 0 ${lbox} 0 ${lbox} units box
region          box block 0 10 0 ${lbox} 0 ${lbox} units box
region          box block 0 10 0 10 0 ${lbox} units box
region          box block 0 10 0 10 0 10 units box
create_box      2 box                                       bond/types 1                                angle/types 1                               extra/bond/per/atom 2                       extra/angle/per/atom 1                      extra/special/per/atom 2
Created orthogonal box = (0 0 0) to (10 10 10)
  1 by 2 by 2 MPI processor grid

molecule        h2omol H2O.txt
Read molecule template h2omol:
# Water molecule. SPC/E model.
  1 molecules
  0 fragments
  0 bodies
  3 atoms with max type 2
  2 bonds with max type 1
  1 angles with max type 1
  0 dihedrals with max type 0
  0 impropers with max type 0
create_atoms   	0 box mol h2omol 464563 units box
Created 24 atoms
  using box units in orthogonal box = (0 0 0) to (10 10 10)
  create_atoms CPU = 0.001 seconds

# rigid SPC/E water model

pair_coeff      1 1 0.15535 3.166
pair_coeff      * 2 0.0000 0.0000

bond_coeff      1     1000       1.0
angle_coeff     1      100       109.47

# masses

mass 1 15.9994
mass 2 1.0

# MD settings

group           h2o type 1 2
24 atoms in group h2o
neighbor        2.0 bin
neigh_modify    every 1 delay 1 check yes
velocity       	all create ${temp} 54654
velocity       	all create 338 54654
timestep        1.0

# rigid constraints with thermostat

fix             mynvt h2o nvt temp ${temp} ${temp} 100
fix             mynvt h2o nvt temp 338 ${temp} 100
fix             mynvt h2o nvt temp 338 338 100
fix             wshake h2o shake 0.0001 50 0 b 1 a 1 mol h2omol
Finding SHAKE clusters ...
       0 = # of size 2 clusters
       0 = # of size 3 clusters
       0 = # of size 4 clusters
       8 = # of frozen angles
  find clusters CPU = 0.000 seconds

# important to make temperature dofs dynamic

compute_modify  thermo_temp dynamic/dof yes
compute_modify  mynvt_temp dynamic/dof yes

# output

thermo_style    custom step temp press pe ke density atoms

# gcmc

variable        tfac equal 5.0/3.0 # (3 trans + 2 rot)/(3 trans)
fix             mygcmc h2o gcmc ${nevery} 100 0 0 54341 ${temp} ${mu} ${disp} mol                 h2omol tfac_insert ${tfac} group h2o shake wshake
fix             mygcmc h2o gcmc 10 100 0 0 54341 ${temp} ${mu} ${disp} mol                 h2omol tfac_insert ${tfac} group h2o shake wshake
fix             mygcmc h2o gcmc 10 100 0 0 54341 338 ${mu} ${disp} mol                 h2omol tfac_insert ${tfac} group h2o shake wshake
fix             mygcmc h2o gcmc 10 100 0 0 54341 338 -8.1 ${disp} mol                 h2omol tfac_insert ${tfac} group h2o shake wshake
fix             mygcmc h2o gcmc 10 100 0 0 54341 338 -8.1 0.5 mol                 h2omol tfac_insert ${tfac} group h2o shake wshake
fix             mygcmc h2o gcmc 10 100 0 0 54341 338 -8.1 0.5 mol                 h2omol tfac_insert 1.66666666666667 group h2o shake wshake

# run equilibration and write restart

run             ${nequil}
run             100
Ewald initialization ...
  using 12-bit tables for long-range coulomb
  G vector (1/distance) = 0.17044845
  estimated absolute RMS force accuracy = 0.033206374
  estimated relative force accuracy = 0.00010000001
  KSpace vectors: actual max1d max3d = 16 2 62
                  kxmax kymax kzmax  = 2 2 2
Generated 0 of 1 mixed pair_coeff terms from arithmetic mixing rule
WARNING: Fix gcmc using full_energy option (src/MC/fix_gcmc.cpp:545)
0 atoms in group FixGCMC:gcmc_exclusion_group:mygcmc
0 atoms in group FixGCMC:rotation_gas_atoms:mygcmc
WARNING: Neighbor exclusions used with KSpace solver may give inconsistent Coulombic energies (src/neighbor.cpp:659)
Neighbor list info ...
  update: every = 1 steps, delay = 1 steps, check = yes
  max neighbors/atom: 2000, page size: 100000
  master list distance cutoff = 16
  ghost atom cutoff = 16
  binsize = 8, bins = 2 2 2
  1 neighbor lists, perpetual/occasional/extra = 1 0 0
  (1) pair lj/cut/coul/long, perpetual
      attributes: half, newton on
      pair build: half/bin/newton
      stencil: half/bin/3d
      bin: standard
Per MPI rank memory allocation (min/avg/max) = 11.6 | 11.6 | 11.6 Mbytes
   Step          Temp          Press          PotEng         KinEng        Density        Atoms   
         0   518.26667     -4241.4177     -4.9610797      23.172817      0.23910963            24 
       100   626.15717      704.44792     -205.04196      98.922147      0.80699501            81 
Loop time of 1.01498 on 4 procs for 100 steps with 81 atoms

Performance: 8.512 ns/day, 2.819 hours/ns, 98.524 timesteps/s, 7.980 katom-step/s
99.7% CPU use with 4 MPI tasks x 1 OpenMP threads

MPI task timing breakdown:
Section |  min time  |  avg time  |  max time  |%varavg| %total
---------------------------------------------------------------
Pair    | 0.010136   | 0.013952   | 0.01808    |   3.0 |  1.37
Bond    | 4.8875e-05 | 5.9553e-05 | 7.2675e-05 |   0.0 |  0.01
Kspace  | 0.0012511  | 0.0053739  | 0.0091775  |   4.9 |  0.53
Neigh   | 0.0053664  | 0.0053889  | 0.0054061  |   0.0 |  0.53
Comm    | 0.0078427  | 0.007889   | 0.0079398  |   0.0 |  0.78
Output  | 3.4921e-05 | 3.7561e-05 | 4.5329e-05 |   0.0 |  0.00
Modify  | 0.98188    | 0.98192    | 0.98195    |   0.0 | 96.74
Other   |            | 0.0003674  |            |       |  0.04

Nlocal:          20.25 ave          25 max          15 min
Histogram: 1 0 0 0 0 1 1 0 0 1
Nghost:           4732 ave        4745 max        4719 min
Histogram: 1 1 0 0 0 0 0 0 1 1
Neighs:        14050.5 ave       18895 max        9557 min
Histogram: 2 0 0 0 0 0 0 0 0 2

Total # of neighbors = 56202
Ave neighs/atom = 693.85185
Ave special neighs/atom = 2
Neighbor list builds = 1020
Dangerous builds = 0
write_restart   ${restartfile}
write_restart   restart.gcmc.h2o
System init for write_restart ...
Ewald initialization ...
  using 12-bit tables for long-range coulomb
  G vector (1/distance) = 0.17932017
  estimated absolute RMS force accuracy = 0.033206452
  estimated relative force accuracy = 0.00010000024
  KSpace vectors: actual max1d max3d = 16 2 62
                  kxmax kymax kzmax  = 2 2 2
Generated 0 of 1 mixed pair_coeff terms from arithmetic mixing rule
0 atoms in group FixGCMC:rotation_gas_atoms:mygcmc
WARNING: Neighbor exclusions used with KSpace solver may give inconsistent Coulombic energies (src/neighbor.cpp:659)

# run simulation, store reference values, and clear simulation

run             ${nsteps}
run             100
Ewald initialization ...
  using 12-bit tables for long-range coulomb
  G vector (1/distance) = 0.17932017
  estimated absolute RMS force accuracy = 0.033206452
  estimated relative force accuracy = 0.00010000024
  KSpace vectors: actual max1d max3d = 16 2 62
                  kxmax kymax kzmax  = 2 2 2
Generated 0 of 1 mixed pair_coeff terms from arithmetic mixing rule
0 atoms in group FixGCMC:rotation_gas_atoms:mygcmc
WARNING: Neighbor exclusions used with KSpace solver may give inconsistent Coulombic energies (src/neighbor.cpp:659)
Per MPI rank memory allocation (min/avg/max) = 12.05 | 12.05 | 12.05 Mbytes
   Step          Temp          Press          PotEng         KinEng        Density        Atoms   
       100   626.15717      837.59137     -204.53337      98.922147      0.80699501            81 
       200   416.53467     -148.0832      -214.501        65.805368      0.80699501            81 
Loop time of 1.35653 on 4 procs for 100 steps with 81 atoms

Performance: 6.369 ns/day, 3.768 hours/ns, 73.717 timesteps/s, 5.971 katom-step/s
99.8% CPU use with 4 MPI tasks x 1 OpenMP threads

MPI task timing breakdown:
Section |  min time  |  avg time  |  max time  |%varavg| %total
---------------------------------------------------------------
Pair    | 0.013724   | 0.018886   | 0.024905   |   3.6 |  1.39
Bond    | 5.2375e-05 | 6.3232e-05 | 7.8597e-05 |   0.0 |  0.00
Kspace  | 0.0009847  | 0.0069633  | 0.012099   |   5.9 |  0.51
Neigh   | 0.0062311  | 0.0062578  | 0.0062758  |   0.0 |  0.46
Comm    | 0.0088029  | 0.0088605  | 0.0089197  |   0.0 |  0.65
Output  | 1.326e-05  | 1.5859e-05 | 2.3509e-05 |   0.0 |  0.00
Modify  | 1.3151     | 1.3151     | 1.3151     |   0.0 | 96.95
Other   |            | 0.000392   |            |       |  0.03

Nlocal:          20.25 ave          23 max          17 min
Histogram: 1 0 0 1 0 0 0 0 1 1
Nghost:           4709 ave        4764 max        4664 min
Histogram: 1 0 1 0 0 1 0 0 0 1
Neighs:        14068.8 ave       17365 max       11202 min
Histogram: 2 0 0 0 0 0 0 0 1 1

Total # of neighbors = 56275
Ave neighs/atom = 694.75309
Ave special neighs/atom = 2
Neighbor list builds = 1020
Dangerous builds = 0
variable        tmp equal temp
variable        tref equal ${tmp}
variable        tref equal 416.534668227774
variable        tmp equal press
variable        pref equal ${tmp}
variable        pref equal -148.083202498286
variable        tmp equal sum(f_mygcmc)
variable        gcmcref equal ${tmp}
variable        gcmcref equal 2059
clear
OMP_NUM_THREADS environment is not set. Defaulting to 1 thread.
  using 1 OpenMP thread(s) per MPI task

# rerun simulation from restart

read_restart    ${restartfile}
read_restart    restart.gcmc.h2o
Reading restart file ...
  restart file = 30 Mar 2026, LAMMPS = 30 Mar 2026
  restoring atom style full from restart
  orthogonal box = (0 0 0) to (10 10 10)
  1 by 2 by 2 MPI processor grid
  restoring pair style lj/cut/coul/long from restart
  restoring bond style harmonic from restart
  restoring angle style harmonic from restart
  81 atoms
  90 bonds
  45 angles
Finding 1-2 1-3 1-4 neighbors ...
  special bond factors lj:    0        0        0       
  special bond factors coul:  0        0        0       
     2 = max # of 1-2 neighbors
     1 = max # of 1-3 neighbors
     1 = max # of 1-4 neighbors
     3 = max # of special neighbors
  special bonds CPU = 0.000 seconds
  read_restart CPU = 0.003 seconds
molecule        h2omol H2O.txt
Read molecule template h2omol:
# Water molecule. SPC/E model.
  1 molecules
  0 fragments
  0 bodies
  3 atoms with max type 2
  2 bonds with max type 1
  1 angles with max type 1
  0 dihedrals with max type 0
  0 impropers with max type 0
kspace_style    ewald 0.0001
fix             mynvt h2o nvt temp ${temp} ${temp} 100
fix             mynvt h2o nvt temp 338 ${temp} 100
fix             mynvt h2o nvt temp 338 338 100
Resetting global fix info from restart file:
  fix style: nvt, fix ID: mynvt
fix             wshake h2o shake 0.0001 50 0 b 1 a 1 mol h2omol
Finding SHAKE clusters ...
       0 = # of size 2 clusters
       0 = # of size 3 clusters
       0 = # of size 4 clusters
      27 = # of frozen angles
  find clusters CPU = 0.000 seconds

# important to make temperature dofs dynamic

compute_modify  thermo_temp dynamic/dof yes
compute_modify  mynvt_temp dynamic/dof yes

# gcmc

fix             mygcmc h2o gcmc ${nevery} 100 0 0 54341 ${temp} ${mu} ${disp} mol                 h2omol tfac_insert ${tfac} group h2o shake wshake
fix             mygcmc h2o gcmc 10 100 0 0 54341 ${temp} ${mu} ${disp} mol                 h2omol tfac_insert ${tfac} group h2o shake wshake
fix             mygcmc h2o gcmc 10 100 0 0 54341 338 ${mu} ${disp} mol                 h2omol tfac_insert ${tfac} group h2o shake wshake
fix             mygcmc h2o gcmc 10 100 0 0 54341 338 -8.1 ${disp} mol                 h2omol tfac_insert ${tfac} group h2o shake wshake
fix             mygcmc h2o gcmc 10 100 0 0 54341 338 -8.1 0.5 mol                 h2omol tfac_insert ${tfac} group h2o shake wshake
fix             mygcmc h2o gcmc 10 100 0 0 54341 338 -8.1 0.5 mol                 h2omol tfac_insert 1.66666666666667 group h2o shake wshake
Resetting global fix info from restart file:
  fix style: gcmc, fix ID: mygcmc

# output

compute_modify  thermo_temp dynamic/dof yes
thermo_style    custom step temp press pe ke density atoms

# rerun simulation from restart, measure errors, and clear

run             ${nsteps}
run             100
Ewald initialization ...
  using 12-bit tables for long-range coulomb
  G vector (1/distance) = 0.17932017
  estimated absolute RMS force accuracy = 0.033206452
  estimated relative force accuracy = 0.00010000024
  KSpace vectors: actual max1d max3d = 16 2 62
                  kxmax kymax kzmax  = 2 2 2
Generated 0 of 1 mixed pair_coeff terms from arithmetic mixing rule
All restart file global fix info was re-assigned
WARNING: Fix gcmc using full_energy option (src/MC/fix_gcmc.cpp:545)
0 atoms in group FixGCMC:gcmc_exclusion_group:mygcmc
0 atoms in group FixGCMC:rotation_gas_atoms:mygcmc
WARNING: Neighbor exclusions used with KSpace solver may give inconsistent Coulombic energies (src/neighbor.cpp:659)
Neighbor list info ...
  update: every = 1 steps, delay = 0 steps, check = yes
  max neighbors/atom: 2000, page size: 100000
  master list distance cutoff = 16
  ghost atom cutoff = 16
  binsize = 8, bins = 2 2 2
  1 neighbor lists, perpetual/occasional/extra = 1 0 0
  (1) pair lj/cut/coul/long, perpetual
      attributes: half, newton on
      pair build: half/bin/newton
      stencil: half/bin/3d
      bin: standard
Per MPI rank memory allocation (min/avg/max) = 11.72 | 11.72 | 11.72 Mbytes
   Step          Temp          Press          PotEng         KinEng        Density        Atoms   
       100   626.15717      837.59129     -204.53337      98.922147      0.80699501            81 
       200   416.53467     -148.08249     -214.50099      65.805368      0.80699501            81 
Loop time of 1.34635 on 4 procs for 100 steps with 81 atoms

Performance: 6.417 ns/day, 3.740 hours/ns, 74.275 timesteps/s, 6.016 katom-step/s
99.8% CPU use with 4 MPI tasks x 1 OpenMP threads

MPI task timing breakdown:
Section |  min time  |  avg time  |  max time  |%varavg| %total
---------------------------------------------------------------
Pair    | 0.01447    | 0.019531   | 0.025291   |   3.4 |  1.45
Bond    | 1.6734e-05 | 1.8191e-05 | 1.8965e-05 |   0.0 |  0.00
Kspace  | 0.00087184 | 0.006571   | 0.011564   |   5.9 |  0.49
Neigh   | 0.0055256  | 0.0055767  | 0.0056315  |   0.1 |  0.41
Comm    | 0.0087223  | 0.0087875  | 0.0088394  |   0.0 |  0.65
Output  | 1.2744e-05 | 1.5396e-05 | 2.3204e-05 |   0.0 |  0.00
Modify  | 1.3054     | 1.3054     | 1.3055     |   0.0 | 96.96
Other   |            | 0.0004067  |            |       |  0.03

Nlocal:          20.25 ave          23 max          17 min
Histogram: 1 0 0 1 0 0 0 0 1 1
Nghost:           4709 ave        4764 max        4664 min
Histogram: 1 0 1 0 0 1 0 0 0 1
Neighs:        14068.8 ave       17365 max       11202 min
Histogram: 2 0 0 0 0 0 0 0 1 1

Total # of neighbors = 56275
Ave neighs/atom = 694.75309
Ave special neighs/atom = 2
Neighbor list builds = 1020
Dangerous builds = 0
variable        tmp equal temp
variable        terror equal ${tmp} - v_tref
variable        terror equal 416.534668402313 - v_tref
variable        tmp equal press
variable        perror equal ${tmp} - v_pref
variable        perror equal -148.082485711746 - v_pref
variable        tmp equal sum(f_mygcmc)
variable        gcmcerror equal ${tmp} - v_gcmcref
variable        gcmcerror equal 2059 - v_gcmcref
clear
OMP_NUM_THREADS environment is not set. Defaulting to 1 thread.
  using 1 OpenMP thread(s) per MPI task

# report restart errors

print "H2O: change in temperature from restart = ${terror} "
H2O: change in temperature from restart = 1.74539025010745e-07 
print "H2O: change in pressure from restart = ${perror} "
H2O: change in pressure from restart = 0.000716786540010617 
print "H2O: change in fix GCMC from restart = ${gcmcerror} "
H2O: change in fix GCMC from restart = 0 

Total wall time: 0:00:06
