LAMMPS (10 Dec 2025 - Development - patch_10Dec2025-120-ga51f9ba0e7-modified)
OMP_NUM_THREADS environment is not set. Defaulting to 1 thread.
  using 1 OpenMP thread(s) per MPI task
# GCMC for CO2 molecular fluid, rigid/small dynamics
# Rigid CO2 TraPPE model
# [Potoff and J.I. Siepmann, Vapor-liquid equilibria of
# mixtures containing alkanes, carbon dioxide and
# nitrogen AIChE J., 47,1676-1682 (2001)].

# variables available on command line

variable        mu index -8.1
variable        disp index 0.5
variable        temp index 338.0
variable        lbox index 10.0
variable        spacing index 5.0

# global model settings

units           real
atom_style      full
boundary        p p p
pair_style      lj/cut/coul/long  14
pair_modify     mix arithmetic tail yes
kspace_style    ewald 0.0001
bond_style      harmonic
angle_style     harmonic

# box, start molecules on simple cubic lattice

lattice         sc ${spacing}
lattice         sc 5.0
Lattice spacing in x,y,z = 5 5 5
region          box block 0 ${lbox} 0 ${lbox} 0 ${lbox} units box
region          box block 0 10.0 0 ${lbox} 0 ${lbox} units box
region          box block 0 10.0 0 10.0 0 ${lbox} units box
region          box block 0 10.0 0 10.0 0 10.0 units box
create_box      2 box                                       bond/types 1                                angle/types 1                               extra/bond/per/atom 2                       extra/angle/per/atom 1                      extra/special/per/atom 2
Created orthogonal box = (0 0 0) to (10 10 10)
  1 by 2 by 2 MPI processor grid
molecule        co2mol CO2.txt
Read molecule template co2mol:
# CO2 molecule file. TraPPE model.
  1 molecules
  0 fragments
  0 bodies
  3 atoms with max type 2
  2 bonds with max type 1
  1 angles with max type 1
  0 dihedrals with max type 0
  0 impropers with max type 0
create_atoms    0 box mol co2mol 464563 units box
Created 24 atoms
  using box units in orthogonal box = (0 0 0) to (10 10 10)
  create_atoms CPU = 0.002 seconds

# rigid CO2 TraPPE model

pair_coeff      1   1  0.053649   2.8
pair_coeff      2   2  0.156973   3.05
bond_coeff      1       0       1.16
angle_coeff     1       0       180

# masses

mass 1 12.0107
mass 2 15.9994

# MD settings

group           co2 type 1 2
24 atoms in group co2
neighbor        2.0 bin
neigh_modify    every 1 delay 10 check yes
velocity        all create ${temp} 54654
velocity        all create 338.0 54654
timestep        1.0

# rigid constraints with thermostat

fix             myrigid co2 rigid/small molecule mol co2mol
Fix rigid/small setup ...
  create bodies CPU = 0.000 seconds
  8 rigid bodies with 24 atoms
  1.16 = max distance from body owner to body atom

# dynamically update  fix rigid/nvt/small temperature ndof
fix_modify      myrigid dynamic/dof yes

# gcmc

variable        tfac equal 5.0/3.0 # (3 trans + 2 rot)/(3 trans)
fix             mygcmc co2 gcmc 100 100 0 0 54341 ${temp} ${mu} ${disp} mol                 co2mol tfac_insert ${tfac} group co2 rigid myrigid
fix             mygcmc co2 gcmc 100 100 0 0 54341 338.0 ${mu} ${disp} mol                 co2mol tfac_insert ${tfac} group co2 rigid myrigid
fix             mygcmc co2 gcmc 100 100 0 0 54341 338.0 -8.1 ${disp} mol                 co2mol tfac_insert ${tfac} group co2 rigid myrigid
fix             mygcmc co2 gcmc 100 100 0 0 54341 338.0 -8.1 0.5 mol                 co2mol tfac_insert ${tfac} group co2 rigid myrigid
fix             mygcmc co2 gcmc 100 100 0 0 54341 338.0 -8.1 0.5 mol                 co2mol tfac_insert 1.66666666666667 group co2 rigid myrigid

# atom counts

variable        carbon atom "type==1"
variable        oxygen atom "type==2"
group           carbon dynamic co2 var carbon
dynamic group carbon defined
group           oxygen dynamic co2 var oxygen
dynamic group oxygen defined
variable        nC equal count(carbon)
variable        nO equal count(oxygen)

# output

variable        tacc equal f_mygcmc[2]/(f_mygcmc[1]+0.1)
variable        iacc equal f_mygcmc[4]/(f_mygcmc[3]+0.1)
variable        dacc equal f_mygcmc[6]/(f_mygcmc[5]+0.1)
variable        racc equal f_mygcmc[8]/(f_mygcmc[7]+0.1)

# dynamically update default temperature ndof
compute_modify  thermo_temp dynamic/dof yes

thermo_style    custom step temp press pe ke density atoms v_iacc v_dacc v_tacc v_racc v_nC v_nO
thermo          1000

# run

run             20000
Ewald initialization ...
  using 12-bit tables for long-range coulomb
  G vector (1/distance) = 0.16463644
  estimated absolute RMS force accuracy = 0.033206372
  estimated relative force accuracy = 0.0001
  KSpace vectors: actual max1d max3d = 16 2 62
                  kxmax kymax kzmax  = 2 2 2
Generated 1 of 1 mixed pair_coeff terms from arithmetic mixing rule
WARNING: Fix gcmc using full_energy option (src/MC/fix_gcmc.cpp:544)
0 atoms in group FixGCMC:gcmc_exclusion_group:mygcmc
0 atoms in group FixGCMC:rotation_gas_atoms:mygcmc
WARNING: Neighbor exclusions used with KSpace solver may give inconsistent Coulombic energies (src/neighbor.cpp:659)
Neighbor list info ...
  update: every = 1 steps, delay = 10 steps, check = yes
  max neighbors/atom: 2000, page size: 100000
  master list distance cutoff = 16
  ghost atom cutoff = 16
  binsize = 8, bins = 2 2 2
  1 neighbor lists, perpetual/occasional/extra = 1 0 0
  (1) pair lj/cut/coul/long, perpetual
      attributes: half, newton on
      pair build: half/bin/newton
      stencil: half/bin/3d
      bin: standard
Per MPI rank memory allocation (min/avg/max) = 15.98 | 15.98 | 15.98 Mbytes
   Step          Temp          Press          PotEng         KinEng        Density        Atoms        v_iacc         v_dacc         v_tacc         v_racc          v_nC           v_nO     
         0   386.52184      23582.466     -3.243336       14.209828      0.5846359             24   0              0              0              0              8              16           
      1000   478.86079     -200.13146     -9.7360082      15.225526      0.51155641            21   0.33460228     0.33526242     0              0              7              14           
      2000   783.83491      50.956054     -0.069213327    1.557642       0.073079488            3   0.28013496     0.27492418     0              0              1              2            
      3000   292.05467     -79.965275     -3.1982483      4.9331704      0.29231795            12   0.25099521     0.24767802     0              0              4              8            
      4000   407.62617      298.31021     -32.653851      25.111161      0.95003334            39   0.23743788     0.23305612     0              0              13             26           
      5000   329.71569     -1243.1511     -31.321953      18.673577      0.87695385            36   0.19402807     0.19476077     0              0              12             24           
      6000   310.25069      220.30952     -37.452055      20.653831      1.0231128             42   0.1642731      0.16238205     0              0              14             28           
      7000   275.77364      914.2176      -19.490247      14.2485        0.80387436            33   0.14155368     0.1421556      0              0              11             22           
      8000   558.84971      891.53513     -17.776388      26.097923      0.73079488            30   0.14930963     0.14918275     0              0              10             20           
      9000   493.05679     -269.63958     -21.13373       23.025435      0.73079488            30   0.15868443     0.15908736     0              0              10             20           
     10000   426.9838       501.5029      -7.8449193      13.576081      0.51155641            21   0.16159488     0.16381236     0              0              7              14           
     11000   407.99321     -1101.6499     -30.620067      23.106855      0.87695385            36   0.15574525     0.15735194     0              0              12             24           
     12000   251.23968     -952.60362     -18.994508      11.732732      0.73079488            30   0.14396456     0.14604797     0              0              10             20           
     13000   374.6238       657.66832     -3.9466528      8.1890041      0.36539744            15   0.13654901     0.13900296     0              0              5              10           
     14000   275.68227      71.451936     -10.213416      10.134996      0.5846359             24   0.14563038     0.14781019     0              0              8              16           
     15000   320.93188     -730.67964     -27.133518      18.176103      0.87695385            36   0.13766498     0.13968322     0              0              12             24           
     16000   220.57022     -220.35076     -5.5420113      4.8215048      0.36539744            15   0.13666663     0.13897106     0              0              5              10           
     17000   511.78307      668.27944     -3.4494891      11.187206      0.36539744            15   0.1469061      0.14970166     0              0              5              10           
     18000   332.7308      -661.50682     -17.07657       13.885302      0.65771539            27   0.15319919     0.15514368     0              0              9              18           
     19000   334.46053      109.04259     -5.9942726      8.9726698      0.43847693            18   0.15863203     0.16031979     0              0              6              12           
     20000   2395.16        196.93174     -0.086009424    4.759678       0.073079488            3   0.16091564     0.16258613     0              0              1              2            
Loop time of 11.0887 on 4 procs for 20000 steps with 3 atoms

Performance: 155.834 ns/day, 0.154 hours/ns, 1803.638 timesteps/s, 5.411 katom-step/s
99.8% CPU use with 4 MPI tasks x 1 OpenMP threads

MPI task timing breakdown:
Section |  min time  |  avg time  |  max time  |%varavg| %total
---------------------------------------------------------------
Pair    | 0.53209    | 0.73538    | 0.95096    |  17.5 |  6.63
Bond    | 0.008397   | 0.0089814  | 0.0097819  |   0.6 |  0.08
Kspace  | 0.20197    | 0.41607    | 0.61884    |  23.2 |  3.75
Neigh   | 0.025556   | 0.025576   | 0.025593   |   0.0 |  0.23
Comm    | 0.70873    | 0.71137    | 0.71509    |   0.3 |  6.42
Output  | 0.0010699  | 0.0011311  | 0.0013128  |   0.3 |  0.01
Modify  | 9.1253     | 9.129      | 9.1333     |   0.1 | 82.33
Other   |            | 0.0612     |            |       |  0.55

Nlocal:           0.75 ave           2 max           0 min
Histogram: 2 0 0 0 0 1 0 0 0 1
Nghost:          210.5 ave         240 max         183 min
Histogram: 1 0 1 0 0 0 1 0 0 1
Neighs:          21.25 ave          56 max           0 min
Histogram: 2 0 0 0 0 1 0 0 0 1

Total # of neighbors = 85
Ave neighs/atom = 28.333333
Ave special neighs/atom = 2
Neighbor list builds = 20189
Dangerous builds = 0

Total wall time: 0:00:11
