LAMMPS (10 Sep 2025 - Development - patch_10Sep2025-522-g338caa7f33-modified)
Running on 2 partitions of processors
 GEMC run progress:   1% 
  Trans: 809/993
  Vol: 116/986
  Ex: 20/1021
 GEMC run progress:   2% 
  Trans: 792/1011
  Vol: 120/980
  Ex: 19/1009
 GEMC run progress:   3% 
  Trans: 889/1024
  Vol: 113/995
  Ex: 16/981
 GEMC run progress:   4% 
  Trans: 899/1016
  Vol: 100/976
  Ex: 13/1008
 GEMC run progress:   5% 
  Trans: 921/983
  Vol: 117/1043
  Ex: 15/974
 GEMC run progress:   6% 
  Trans: 871/1029
  Vol: 112/943
  Ex: 17/1028
 GEMC run progress:   7% 
  Trans: 758/949
  Vol: 121/1013
  Ex: 22/1038
 GEMC run progress:   8% 
  Trans: 777/962
  Vol: 108/994
  Ex: 20/1044
 GEMC run progress:   9% 
  Trans: 933/1056
  Vol: 106/966
  Ex: 12/978
 GEMC run progress:  10% 
  Trans: 891/981
  Vol: 95/1049
  Ex: 23/970
 GEMC run progress:  11% 
  Trans: 761/953
  Vol: 104/1044
  Ex: 14/1003
 GEMC run progress:  12% 
  Trans: 865/1019
  Vol: 106/980
  Ex: 28/1001
 GEMC run progress:  13% 
  Trans: 889/995
  Vol: 103/1012
  Ex: 15/993
 GEMC run progress:  14% 
  Trans: 884/1011
  Vol: 108/1018
  Ex: 16/971
 GEMC run progress:  15% 
  Trans: 813/961
  Vol: 92/1016
  Ex: 22/1023
 GEMC run progress:  16% 
  Trans: 729/994
  Vol: 115/1019
  Ex: 34/987
 GEMC run progress:  17% 
  Trans: 933/1049
  Vol: 100/970
  Ex: 31/981
 GEMC run progress:  18% 
  Trans: 827/1002
  Vol: 106/999
  Ex: 19/999
 GEMC run progress:  19% 
  Trans: 900/1003
  Vol: 92/1000
  Ex: 22/997
 GEMC run progress:  20% 
  Trans: 917/1015
  Vol: 89/969
  Ex: 18/1016
 GEMC run progress:  21% 
  Trans: 824/1014
  Vol: 92/984
  Ex: 15/1002
 GEMC run progress:  22% 
  Trans: 859/988
  Vol: 89/957
  Ex: 13/1055
 GEMC run progress:  23% 
  Trans: 795/959
  Vol: 86/1029
  Ex: 10/1012
 GEMC run progress:  24% 
  Trans: 722/976
  Vol: 83/982
  Ex: 12/1042
 GEMC run progress:  25% 
  Trans: 775/966
  Vol: 113/1017
  Ex: 10/1017
 GEMC run progress:  26% 
  Trans: 778/1008
  Vol: 71/976
  Ex: 5/1016
 GEMC run progress:  27% 
  Trans: 744/970
  Vol: 86/996
  Ex: 16/1034
 GEMC run progress:  28% 
  Trans: 730/992
  Vol: 79/999
  Ex: 15/1009
 GEMC run progress:  29% 
  Trans: 792/1038
  Vol: 76/975
  Ex: 8/1017
 GEMC run progress:  30% 
  Trans: 692/992
  Vol: 104/1014
  Ex: 6/964
 GEMC run progress:  31% 
  Trans: 668/948
  Vol: 101/1022
  Ex: 5/1030
 GEMC run progress:  32% 
  Trans: 638/1021
  Vol: 83/968
  Ex: 12/1011
 GEMC run progress:  33% 
  Trans: 688/1028
  Vol: 90/967
  Ex: 8/1005
 GEMC run progress:  34% 
  Trans: 783/1002
  Vol: 107/1000
  Ex: 8/998
 GEMC run progress:  35% 
  Trans: 582/990
  Vol: 97/995
  Ex: 8/1015
 GEMC run progress:  36% 
  Trans: 781/1020
  Vol: 104/954
  Ex: 9/1026
 GEMC run progress:  37% 
  Trans: 814/984
  Vol: 104/1028
  Ex: 22/988
 GEMC run progress:  38% 
  Trans: 831/1000
  Vol: 96/1006
  Ex: 14/994
 GEMC run progress:  39% 
  Trans: 930/1034
  Vol: 104/985
  Ex: 12/981
 GEMC run progress:  40% 
  Trans: 863/995
  Vol: 120/1002
  Ex: 9/1003
 GEMC run progress:  41% 
  Trans: 834/1015
  Vol: 106/1010
  Ex: 16/975
 GEMC run progress:  42% 
  Trans: 794/1042
  Vol: 105/974
  Ex: 12/984
 GEMC run progress:  43% 
  Trans: 814/1017
  Vol: 93/966
  Ex: 23/1017
 GEMC run progress:  44% 
  Trans: 793/981
  Vol: 108/1009
  Ex: 15/1010
 GEMC run progress:  45% 
  Trans: 813/978
  Vol: 106/968
  Ex: 20/1054
 GEMC run progress:  46% 
  Trans: 885/1003
  Vol: 98/997
  Ex: 17/1000
 GEMC run progress:  47% 
  Trans: 837/1023
  Vol: 86/947
  Ex: 10/1030
 GEMC run progress:  48% 
  Trans: 781/966
  Vol: 94/979
  Ex: 15/1055
 GEMC run progress:  49% 
  Trans: 843/972
  Vol: 114/1060
  Ex: 17/968
 GEMC run progress:  50% 
  Trans: 840/1008
  Vol: 107/1011
  Ex: 17/981
 GEMC run progress:  51% 
  Trans: 893/987
  Vol: 86/986
  Ex: 11/1027
 GEMC run progress:  52% 
  Trans: 830/961
  Vol: 99/957
  Ex: 20/1082
 GEMC run progress:  53% 
  Trans: 848/934
  Vol: 105/1051
  Ex: 22/1015
 GEMC run progress:  54% 
  Trans: 958/1057
  Vol: 95/955
  Ex: 13/988
 GEMC run progress:  55% 
  Trans: 892/1005
  Vol: 108/995
  Ex: 17/1000
 GEMC run progress:  56% 
  Trans: 844/997
  Vol: 111/996
  Ex: 13/1007
 GEMC run progress:  57% 
  Trans: 868/1026
  Vol: 98/1021
  Ex: 15/983
 GEMC run progress:  58% 
  Trans: 782/967
  Vol: 108/1028
  Ex: 17/1005
 GEMC run progress:  59% 
  Trans: 833/1003
  Vol: 86/961
  Ex: 18/1006
 GEMC run progress:  60% 
  Trans: 849/968
  Vol: 103/1033
  Ex: 13/999
 GEMC run progress:  61% 
  Trans: 836/1021
  Vol: 91/957
  Ex: 12/1022
 GEMC run progress:  62% 
  Trans: 738/1011
  Vol: 109/1001
  Ex: 15/988
 GEMC run progress:  63% 
  Trans: 786/1010
  Vol: 109/982
  Ex: 13/1008
 GEMC run progress:  64% 
  Trans: 813/1030
  Vol: 113/937
  Ex: 18/1033
 GEMC run progress:  65% 
  Trans: 767/1003
  Vol: 81/1016
  Ex: 7/981
 GEMC run progress:  66% 
  Trans: 808/981
  Vol: 90/997
  Ex: 14/1022
 GEMC run progress:  67% 
  Trans: 786/988
  Vol: 101/990
  Ex: 15/1022
 GEMC run progress:  68% 
  Trans: 937/992
  Vol: 112/1028
  Ex: 12/980
 GEMC run progress:  69% 
  Trans: 893/959
  Vol: 109/1010
  Ex: 7/1031
 GEMC run progress:  70% 
  Trans: 905/1035
  Vol: 109/1000
  Ex: 8/965
 GEMC run progress:  71% 
  Trans: 946/1016
  Vol: 107/1020
  Ex: 9/964
 GEMC run progress:  72% 
  Trans: 910/1019
  Vol: 77/970
  Ex: 4/1011
 GEMC run progress:  73% 
  Trans: 896/991
  Vol: 103/991
  Ex: 9/1018
 GEMC run progress:  74% 
  Trans: 831/1015
  Vol: 79/966
  Ex: 7/1019
 GEMC run progress:  75% 
  Trans: 897/1044
  Vol: 101/959
  Ex: 9/997
 GEMC run progress:  76% 
  Trans: 931/1021
  Vol: 72/986
  Ex: 5/993
 GEMC run progress:  77% 
  Trans: 834/1000
  Vol: 87/1008
  Ex: 12/992
 GEMC run progress:  78% 
  Trans: 742/1001
  Vol: 86/1049
  Ex: 6/950
 GEMC run progress:  79% 
  Trans: 710/992
  Vol: 78/1022
  Ex: 12/986
 GEMC run progress:  80% 
  Trans: 704/989
  Vol: 73/984
  Ex: 10/1027
 GEMC run progress:  81% 
  Trans: 704/998
  Vol: 94/1000
  Ex: 3/1002
 GEMC run progress:  82% 
  Trans: 724/946
  Vol: 88/1026
  Ex: 7/1028
 GEMC run progress:  83% 
  Trans: 838/1031
  Vol: 85/955
  Ex: 14/1014
 GEMC run progress:  84% 
  Trans: 682/963
  Vol: 97/1030
  Ex: 12/1007
 GEMC run progress:  85% 
  Trans: 759/946
  Vol: 89/1005
  Ex: 10/1049
 GEMC run progress:  86% 
  Trans: 825/975
  Vol: 73/1061
  Ex: 2/964
 GEMC run progress:  87% 
  Trans: 812/1011
  Vol: 76/965
  Ex: 2/1024
 GEMC run progress:  88% 
  Trans: 813/988
  Vol: 77/1012
  Ex: 6/1000
 GEMC run progress:  89% 
  Trans: 798/1018
  Vol: 92/1012
  Ex: 8/970
 GEMC run progress:  90% 
  Trans: 880/983
  Vol: 76/1017
  Ex: 8/1000
 GEMC run progress:  91% 
  Trans: 840/1000
  Vol: 75/951
  Ex: 3/1049
 GEMC run progress:  92% 
  Trans: 865/1003
  Vol: 86/988
  Ex: 8/1009
 GEMC run progress:  93% 
  Trans: 797/1003
  Vol: 88/1010
  Ex: 4/987
 GEMC run progress:  94% 
  Trans: 868/978
  Vol: 94/1014
  Ex: 3/1008
 GEMC run progress:  95% 
  Trans: 827/1017
  Vol: 69/1000
  Ex: 4/983
 GEMC run progress:  96% 
  Trans: 821/993
  Vol: 109/1019
  Ex: 8/988
 GEMC run progress:  97% 
  Trans: 697/968
  Vol: 65/1029
  Ex: 7/1003
 GEMC run progress:  98% 
  Trans: 823/1046
  Vol: 82/980
  Ex: 10/974
 GEMC run progress:  99% 
  Trans: 746/1001
  Vol: 96/1003
  Ex: 6/996
 GEMC run progress: 100% 
  Trans: 723/1008
  Vol: 77/1013
  Ex: 12/979
