LAMMPS (10 Sep 2025 - Development - patch_10Sep2025-659-gb375467373-modified)
Processor partition = 0
OMP_NUM_THREADS environment is not set. Defaulting to 1 thread.
  using 1 OpenMP thread(s) per MPI task
#mpirun -np 5 $LMPGIT/build/lmp -in in.gemc.lj -p 1 4 -var nsteps 80 -var ntranslate 3 -var nexchange 0 -var nvolume 1
# 3d Lennard-Jones melt to vapor-liquid mixture GEMC
# mpirun -np 5 ./lmp -in in.gemc.lj -p 1 4

variable        temp index 1.0
variable        ntranslate index 10
variable        nexchange index 10
variable        nvolume index 10
variable        displace index 0.5
variable        max_dlogvolratio index 0.5
variable        nsteps index 10000

units           lj
atom_style      atomic

# initialize gas state in partition 1

partition       yes 1 lattice fcc 0.05
lattice fcc 0.05
Lattice spacing in x,y,z = 4.3088694 4.3088694 4.3088694
partition       yes 1 region box block 0 1 0 1 0 1
region box block 0 1 0 1 0 1

# initialize liquid state in partition 2

partition       yes 2 lattice fcc 0.6
partition       yes 2 region box block 0 3 0 3 0 3

create_box      1 box
Created orthogonal box = (0 0 0) to (4.3088694 4.3088694 4.3088694)
  1 by 1 by 1 MPI processor grid
create_atoms    1 box
Created 4 atoms
  using lattice units in orthogonal box = (0 0 0) to (4.3088694 4.3088694 4.3088694)
  create_atoms CPU = 0.000 seconds
mass            1 1.0

velocity        all create 3.0 87287 loop geom

pair_style      lj/cut 2.5
pair_coeff      1 1 1.0 1.0 2.5

neighbor        0.3 bin
neigh_modify    every 1 delay 5 check yes

fix             1 all nve

thermo          50
thermo_style    custom step temp pe etotal press vol atoms density
run             250
Generated 0 of 0 mixed pair_coeff terms from geometric mixing rule
Neighbor list info ...
  update: every = 1 steps, delay = 5 steps, check = yes
  max neighbors/atom: 2000, page size: 100000
  master list distance cutoff = 2.8
  ghost atom cutoff = 2.8
  binsize = 1.4, bins = 4 4 4
  1 neighbor lists, perpetual/occasional/extra = 1 0 0
  (1) pair lj/cut, perpetual
      attributes: half, newton on
      pair build: half/bin/atomonly/newton
      stencil: half/bin/3d
      bin: standard
Per MPI rank memory allocation (min/avg/max) = 3.059 | 3.059 | 3.059 Mbytes
   Step          Temp          PotEng         TotEng         Press          Volume        Atoms       Density    
         0   3              0              3.375          0.1125         80                     4   0.05         
        50   3.0165043     -0.026598173    3.3669691      0.11051182     80                     4   0.05         
       100   3.0488308     -0.071119653    3.358815       0.10745073     80                     4   0.05         
       150   3.1012973     -0.12610199     3.3628575      0.10509185     80                     4   0.05         
       200   3.2255871     -0.27398268     3.3548028      0.14486233     80                     4   0.05         
       250   3.1160493     -0.15079937     3.354756       0.10385735     80                     4   0.05         
Loop time of 0.000428536 on 1 procs for 250 steps with 4 atoms

Performance: 252020833.722 tau/day, 583381.560 timesteps/s, 2.334 Matom-step/s
98.9% CPU use with 1 MPI tasks x 1 OpenMP threads

MPI task timing breakdown:
Section |  min time  |  avg time  |  max time  |%varavg| %total
---------------------------------------------------------------
Pair    | 5.1111e-05 | 5.1111e-05 | 5.1111e-05 |   0.0 | 11.93
Neigh   | 7.2547e-05 | 7.2547e-05 | 7.2547e-05 |   0.0 | 16.93
Comm    | 0.00014254 | 0.00014254 | 0.00014254 |   0.0 | 33.26
Output  | 2.6482e-05 | 2.6482e-05 | 2.6482e-05 |   0.0 |  6.18
Modify  | 5.5059e-05 | 5.5059e-05 | 5.5059e-05 |   0.0 | 12.85
Other   |            | 8.08e-05   |            |       | 18.85

Nlocal:              4 ave           4 max           4 min
Histogram: 1 0 0 0 0 0 0 0 0 0
Nghost:             52 ave          52 max          52 min
Histogram: 1 0 0 0 0 0 0 0 0 0
Neighs:              7 ave           7 max           7 min
Histogram: 1 0 0 0 0 0 0 0 0 0

Total # of neighbors = 7
Ave neighs/atom = 1.75
Neighbor list builds = 31
Dangerous builds = 0
unfix           1

velocity        all create 0.0 87287 loop geom

#   args: nevery ntranslate nexchange nvolume box_temp displace max_dlogvolratio seed
fix              2 all gemc 1 ${ntranslate} ${nexchange} ${nvolume} ${temp} ${displace} ${max_dlogvolratio} 29494
fix              2 all gemc 1 10 ${nexchange} ${nvolume} ${temp} ${displace} ${max_dlogvolratio} 29494
fix              2 all gemc 1 10 10 ${nvolume} ${temp} ${displace} ${max_dlogvolratio} 29494
fix              2 all gemc 1 10 10 10 ${temp} ${displace} ${max_dlogvolratio} 29494
fix              2 all gemc 1 10 10 10 1.0 ${displace} ${max_dlogvolratio} 29494
fix              2 all gemc 1 10 10 10 1.0 0.5 ${max_dlogvolratio} 29494
fix              2 all gemc 1 10 10 10 1.0 0.5 0.5 29494

variable        mydensity equal density
fix             3 all ave/time 1 50 50 v_mydensity ave window 20
thermo_style    custom step temp pe etotal press vol atoms density f_3

run             ${nsteps}
run             10000
WARNING: No fixes with time integration, atoms won't move
For more information see https://docs.lammps.org/err0028 (src/verlet.cpp:60)
Generated 0 of 0 mixed pair_coeff terms from geometric mixing rule
0 atoms in group FixGEMC:gemc_exclusion_group:2
Per MPI rank memory allocation (min/avg/max) = 3.059 | 3.059 | 3.059 Mbytes
   Step          Temp          PotEng         TotEng         Press          Volume        Atoms       Density          f_3      
       250   0             -0.15079937    -0.15079937    -0.012994499    80                     4   0.05           0            
       300   0             -0.11275837    -0.11275837    -0.0062879888   67.152821              2   0.029782814    0.030875496  
       350   0             -0.38375403    -0.38375403    -0.01256182     82.321387              4   0.048590046    0.033420037  
       400   0             -0.22794919    -0.22794919    -0.014032965    77.564459              3   0.038677508    0.036489809  
       450   0             -0.13198941    -0.13198941    -0.014393517    88.380566              5   0.056573523    0.038465644  
       500   0             -0.092072215   -0.092072215   -0.010316238    86.894605              5   0.057540972    0.044770008  
       550   0             -0.75141126    -0.75141126    -0.053233661    87.453193              7   0.080042818    0.048506475  
       600   0             -0.49989719    -0.49989719    -0.039514478    93.166972              8   0.08586734     0.053159626  
       650   0             -0.31847614    -0.31847614     0.0059658013   93.645464              5   0.053392869    0.053419558  
       700   0              0              0              0              92.654133              2   0.021585653    0.051813854  
       750   0              0              0              0              91.132967              2   0.021945955    0.050337201  
       800   0             -0.41175891    -0.41175891    -0.0040127693   103.77473              5   0.048181288    0.048838313  
       850   0             -0.37073674    -0.37073674     0.059412812    102.21414              4   0.03913353     0.048503543  
       900   0             -0.40647916    -0.40647916    -0.030852664    97.557088              5   0.051252042    0.048332038  
       950   0             -0.36078124    -0.36078124    -0.019221699    106.10791              6   0.056546209    0.048614202  
      1000   0             -0.10644058    -0.10644058    -0.005814375    99.308364              3   0.030208936    0.048769182  
      1050   0             -0.035942293   -0.035942293   -0.0036215378   97.962918              5   0.051039721    0.048808171  
      1100   0             -0.46682673    -0.46682673    -0.0018238445   107.0513               5   0.046706581    0.048765809  
      1150   0             -0.3063625     -0.3063625     -0.012909763    108.14423              4   0.036987641    0.048316178  
      1200   0             -0.45258363    -0.45258363     0.061769366    106.97041              5   0.046741897    0.047982417  
      1250   0             -0.034812933   -0.034812933   -0.0027036364   102.07098              4   0.039188416    0.047703075  
      1300   0             -0.010640523   -0.010640523   -0.00061520042  102.9345               3   0.029144748    0.04817091   
      1350   0              0              0              0              98.602863              1   0.010141693    0.047507612  
      1400   0             -0.31042173    -0.31042173     0.074157124    98.344334              3   0.030505062    0.04667182   
      1450   0             -0.19173144    -0.19173144    -0.018595938    92.192775              5   0.054234185    0.047027882  
      1500   0             -0.54214282    -0.54214282    -0.024630529    85.076023              3   0.035262579    0.045736914  
      1550   0              0              0              0              93.0554                1   0.010746287    0.043600592  
      1600   0              0              0              0              86.475396              1   0.011563983    0.040251624  
      1650   0             -0.37709359    -0.37709359    -0.023593987    99.910028              4   0.040036021    0.038506228  
      1700   0             -0.18037737    -0.18037737     0.036295952    98.50639               4   0.040606503    0.039210402  
      1750   0             -0.1376239     -0.1376239     -0.010394392    97.304444              4   0.041108092    0.03964807   
      1800   0             -0.35844252    -0.35844252    -0.0045719328   102.09372              5   0.048974606    0.040359007  
      1850   0             -0.33729755    -0.33729755    -0.0094816444   103.37356              2   0.019347308    0.039713789  
      1900   0              0              0              0              93.574278              1   0.010686697    0.03798786   
      1950   0              0              0              0              102.52251              2   0.019507911    0.036638163  
      2000   0             -0.079031991   -0.079031991   -0.0059479983   101.97205              4   0.039226437    0.035720519  
      2050   0             -0.013495902   -0.013495902   -0.00054297939  98.741001              2   0.02025501     0.034955321  
      2100   0             -0.11675512    -0.11675512     0.054265557    101.40964              4   0.039443984    0.034578844  
      2150   0             -0.13640418    -0.13640418    -0.00980914     104.32661              4   0.038341128    0.034457611  
      2200   0             -0.020861512   -0.020861512   -0.00088295871  93.500404              2   0.021390282    0.033947884  
      2250   0              0              0              0              92.311016              1   0.010832943    0.032997211  
      2300   0             -0.1823481     -0.1823481     -0.016253189    100.44202              5   0.049779961    0.03343176   
      2350   0             -0.22585006    -0.22585006    -0.014451466    101.78151              5   0.049124837    0.034628859  
      2400   0             -0.34907801    -0.34907801    -0.020562557    105.98075              6   0.056614054    0.035873379  
      2450   0             -0.54366565    -0.54366565    -0.054817842    107.50067              8   0.074418139    0.036520167  
      2500   0             -0.66716266    -0.66716266    -0.0702787      105.44181             11   0.10432294     0.038675581  
      2550   0             -0.28587232    -0.28587232    -0.028837502    91.097294              6   0.065863647    0.041671523  
      2600   0             -0.32185357    -0.32185357    -0.014602344    98.413273              4   0.040644924    0.04336064   
      2650   0             -0.61997463    -0.61997463    -0.020640721    100.90729              5   0.049550434    0.044925936  
      2700   0             -0.2866913     -0.2866913      0.0033021122   100.3378               8   0.079730667    0.044921807  
      2750   0             -0.67037177    -0.67037177    -0.060442196    101.50142              8   0.07881663     0.046685708  
      2800   0             -0.71924987    -0.71924987     0.0016946435   103.23613              9   0.08717878     0.048668359  
      2850   0             -0.66202072    -0.66202072    -0.06983544     103.01684              8   0.077657207    0.051091553  
      2900   0             -0.16725726    -0.16725726    -0.020929984    86.861614              6   0.069075391    0.055167037  
      2950   0              0              0              0              92.720234              2   0.021570265    0.056237656  
      3000   0             -0.26140433    -0.26140433     0.0025102292   96.73659               4   0.0413494      0.055701275  
      3050   0             -0.26014933    -0.26014933     0.012267085    91.341527              4   0.043791692    0.055821303  
      3100   0             -0.22976088    -0.22976088    -0.0249591      96.339624              6   0.06227967     0.056695811  
      3150   0             -0.4405946     -0.4405946     -0.047267342    88.982328              8   0.089905492    0.058520546  
      3200   0             -0.17522233    -0.17522233     0.056205095    90.065691              3   0.033309021    0.059030702  
      3250   0              0              0              0              78.626107              1   0.012718422    0.059597586  
      3300   0             -0.33138627    -0.33138627    -0.026079649    78.596593              4   0.050892791    0.058609918  
      3350   0             -0.10757702    -0.10757702    -0.010001744    81.504203              4   0.049077224    0.0584665    
      3400   0             -0.07210441    -0.07210441    -0.0034602673   80.10785               2   0.024966342    0.057150205  
      3450   0             -0.38247167    -0.38247167     0.032962451    79.546135              4   0.050285284    0.055108853  
      3500   0              0              0              0              82.96682               1   0.012053011    0.052432822  
      3550   0             -0.33884741    -0.33884741     0.0018997767   86.315186              3   0.034756341    0.049818057  
      3600   0             -0.43190665    -0.43190665    -0.012804901    88.458661              4   0.045218862    0.049752331  
      3650   0             -0.57871856    -0.57871856    -0.022123581    90.12423               3   0.033287386    0.049322544  
      3700   0             -0.57941594    -0.57941594    -0.024671965    89.998897              3   0.033333742    0.048854682  
      3750   0             -0.3125176     -0.3125176      0.037414993    81.720836              4   0.048947125    0.046574518  
      3800   0             -0.44158044    -0.44158044    -0.0061654514   85.796392              5   0.058277509    0.045218511  
      3850   0             -0.016672447   -0.016672447   -0.0012021856   82.143321              3   0.036521533    0.043352571  
      3900   0             -0.62346791    -0.62346791    -0.03557917     80.123402              4   0.049922992    0.04134676   
      3950   0             -0.046373864   -0.046373864   -0.0032519843   82.35824               3   0.036426228    0.041620146  
      4000   0             -0.062584861   -0.062584861   -0.0051408885   72.126679              3   0.041593486    0.04231227   
      4050   0              0              0              0              86.656172              1   0.011539859    0.041527691  
      4100   0              0              0              0              90.648283              1   0.011031649    0.039440301  
      4150   0             -0.14372792    -0.14372792     0.054658635    88.714212              5   0.056360755    0.037281313  
      4200   0             -0.014612596   -0.014612596   -0.00091739631  94.499008              3   0.031746365    0.03697124   
      4250   0              0              0              0              80.809147              1   0.012374837    0.037602402  
      4300   0             -0.42080428    -0.42080428    -0.011250752    85.182847              2   0.023478905    0.037417929  
      4350   0              0              0              0              88.309628              1   0.011323794    0.036499164  
      4400   0             -0.29995818    -0.29995818    -0.019217091    84.60995               3   0.035456823    0.03685546   
      4450   0             -0.012454567   -0.012454567   -0.00054614929  90.642088              2   0.022064805    0.03756289   
      4500   0             -0.68311469    -0.68311469    -0.012577111    97.197084              6   0.061730247    0.038296465  
      4550   0             -0.47860173    -0.47860173    -0.027614551    91.767723              6   0.065382466    0.040213053  
      4600   0             -0.37457742    -0.37457742     0.029722299    93.479166              8   0.085580567    0.041809688  
      4650   0             -0.72647244    -0.72647244    -0.066404908    98.232555              9   0.091619322    0.043572678  
      4700   0             -0.39455106    -0.39455106    -0.045685163    99.000293              8   0.080807842    0.045659003  
      4750   0             -0.24568165    -0.24568165    -0.032441873    81.783758              6   0.073364201    0.047332498  
      4800   0             -0.34988599    -0.34988599    -0.033268583    75.148868              5   0.066534602    0.047447016  
      4850   0             -0.65427608    -0.65427608     0.0062586551   86.974889              6   0.068985429    0.047381918  
      4900   0             -0.23737498    -0.23737498     0.057602361    72.525227              3   0.041364917    0.04767755   
      4950   0             -0.0087396313  -0.0087396313  -0.00046498718  74.850264              2   0.026720013    0.046371474  
      5000   0              0              0              0              64.033052              1   0.015616935    0.045600327  
      5050   0             -0.1071016     -0.1071016     -0.011698583    71.270848              4   0.056123929    0.047438357  
      5100   0             -0.29136887    -0.29136887    -0.017235199    79.408709              4   0.050372309    0.049151199  
      5150   0             -0.27013025    -0.27013025    -0.010947302    79.76447               2   0.02507382     0.049190647  
      5200   0              0              0              0              78.38073               1   0.012758238    0.048735684  
      5250   0              0              0              0              76.964038              1   0.012993081    0.047305921  
      5300   0              0              0              0              77.499582              1   0.012903295    0.046899148  
      5350   0              0              0              0              78.88693               2   0.025352742    0.047940173  
      5400   0              0              0              0              73.766437              1   0.013556301    0.047189128  
      5450   0             -0.045993792   -0.045993792   -0.003159308    85.767435              3   0.034978311    0.046714427  
      5500   0              0              0              0              85.872647              1   0.011645152    0.045576635  
      5550   0             -0.17757594    -0.17757594    -0.010289889    85.711322              3   0.03500121     0.043141903  
      5600   0             -0.22439235    -0.22439235    -0.0094030937   90.024802              5   0.05554025     0.040949568  
      5650   0              0              0              0              87.018584              1   0.011491798    0.038434233  
      5700   0              0              0              0              82.377659              1   0.012139214    0.035309169  
      5750   0             -0.019901515   -0.019901515   -0.00097291451  80.991443              2   0.024693967    0.033010737  
      5800   0             -0.094494846   -0.094494846   -0.0063130184   87.324939              3   0.034354447    0.03128217   
      5850   0             -0.18340614    -0.18340614    -0.0071277738   91.21682               2   0.021925781    0.031264305  
      5900   0              0              0              0              89.003028              1   0.011235573    0.029523917  
      5950   0              0              0              0              90.108168              2   0.022195546    0.028902489  
      6000   0              0              0              0              89.217916              2   0.022417022    0.028867446  
      6050   0             -0.13539336    -0.13539336    -0.0056910593   87.664928              2   0.022814141    0.026825508  
      6100   0             -1.0040868     -1.0040868     -0.067649878    85.065329              7   0.082289695    0.027976421  
      6150   0             -0.31398698    -0.31398698    -0.029887853    91.686402              6   0.065440457    0.029511936  
      6200   0             -0.49049647    -0.49049647    -0.066978026    96.097506              8   0.083248778    0.031768197  
      6250   0             -0.84425597    -0.84425597    -0.033835263    89.290603              8   0.089595094    0.03542807   
      6300   0             -1.1810703     -1.1810703     -0.0051270356   83.895297             13   0.15495505     0.040672377  
      6350   0             -0.36044858    -0.36044858     0.040658915    89.953488              8   0.08893485     0.043908867  
      6400   0             -0.89242143    -0.89242143     0.27637367     95.758561              9   0.093986375    0.048407495  
      6450   0             -0.064856251   -0.064856251   -0.0071104315   89.764422              5   0.055701356    0.050801629  
      6500   0             -0.86306089    -0.86306089    -0.02160466     86.782703              7   0.080661235    0.053021996  
      6550   0             -0.62187543    -0.62187543    -0.059172203    88.862535              9   0.10128003     0.056595214  
      6600   0             -1.0597397     -1.0597397     -0.080397109    98.942934             16   0.16170937     0.061634571  
      6650   0             -1.2172692     -1.2172692     -0.1153243      90.231002             10   0.11082665     0.067136035  
      6700   0             -0.67042681    -0.67042681    -0.10910869     96.495372             11   0.1139951      0.071716533  
      6750   0             -1.1686399     -1.1686399     -0.13126846     99.568763             16   0.16069297     0.077851098  
      6800   0             -0.97705303    -0.97705303    -0.14680252     105.33839             18   0.17087787     0.0852722    
      6850   0             -0.83757827    -0.83757827    -0.04035709     106.845               14   0.13103093     0.091073594  
      6900   0             -0.80427512    -0.80427512    -0.086650963    102.36687             13   0.12699421     0.096508108  
      6950   0             -0.74347198    -0.74347198     0.042024744    111.62161             13   0.11646491     0.1017497    
      7000   0             -0.65852457    -0.65852457     0.06226137     112.51781             12   0.10664978     0.10639765   
      7050   0             -0.78836529    -0.78836529    -0.042933969    110.36084             13   0.11779541     0.11086503   
      7100   0             -1.1171426     -1.1171426     -0.05728509     107.29608             15   0.13980008     0.11394444   
      7150   0             -0.79553966    -0.79553966     0.0084708077   111.94185             12   0.10719851     0.11637448   
      7200   0             -0.59657396    -0.59657396    -0.06753253     118.5073              11   0.092821287    0.11757252   
      7250   0             -0.65744708    -0.65744708    -0.019892467    112.3166              11   0.097937434    0.11791047   
      7300   0             -0.51169754    -0.51169754    -0.037442762    112.56946             10   0.088834041    0.11628846   
      7350   0             -0.16777574    -0.16777574    -0.011767038    113.03826              5   0.044232811    0.11377673   
      7400   0             -0.39175147    -0.39175147    -0.027184688    113.79208              6   0.052727745    0.11088199   
      7450   0             -0.12274681    -0.12274681    -0.014843362    111.84424              7   0.06258704     0.10963581   
      7500   0             -0.58135414    -0.58135414     0.032334822    117.63698              8   0.068005826    0.10936967   
      7550   0             -0.40147417    -0.40147417    -0.031812104    107.47406              6   0.055827427    0.10804736   
      7600   0             -0.24232691    -0.24232691    -0.021926397    111.23926              6   0.05393779     0.10381377   
      7650   0             -0.16138482    -0.16138482    -0.0082364761   102.45461              3   0.029281259    0.09927991   
      7700   0             -0.23089304    -0.23089304    -0.017864105    103.18069              5   0.048458678    0.095345101  
      7750   0             -0.47301147    -0.47301147    -0.043661953    104.56688              7   0.0669428      0.090831412  
      7800   0             -0.31526645    -0.31526645    -0.030628695    104.82232              7   0.066779671    0.085342913  
      7850   0             -0.39614857    -0.39614857    -0.0035195567   101.24534              6   0.059261984    0.080749373  
      7900   0             -0.69252302    -0.69252302    -0.068819237    110.0399               8   0.072700901    0.077361152  
      7950   0             -0.28591416    -0.28591416    -0.037513751    105.84834              8   0.075579834    0.075078332  
      8000   0             -0.73151347    -0.73151347    -0.059670401    113.35131              9   0.079399168    0.073570337  
      8050   0             -0.36185694    -0.36185694    -0.0056943512   107.01006              7   0.06541441     0.072271825  
      8100   0             -0.16019325    -0.16019325     0.17865336     94.836346              8   0.084355844    0.069952925  
      8150   0             -0.55389892    -0.55389892    -0.069723046    101.07184              9   0.089045572    0.068375414  
      8200   0             -0.84713576    -0.84713576    -0.094401426    107.76176             10   0.092797295    0.067910349  
      8250   0             -0.70237557    -0.70237557    -0.072526026    106.43658              8   0.075162132    0.067188171  
      8300   0             -0.47786305    -0.47786305    -0.045559471    98.821242              7   0.070834973    0.065838952  
      8350   0             -0.3260444     -0.3260444     -0.0070069457   103.38419              4   0.038690634    0.065950083  
      8400   0             -0.49791804    -0.49791804    -0.0043011217   106.40477              3   0.028194226    0.065082681  
      8450   0              0              0              0              101.82385              2   0.019641764    0.063713019  
      8500   0              0              0              0              94.861102              2   0.021083457    0.061682609  
      8550   0             -0.0095403195  -0.0095403195  -0.00040570795  93.60794               2   0.021365709    0.05939896   
      8600   0              0              0              0              99.967519              1   0.010003249    0.057816924  
      8650   0             -0.056029356   -0.056029356   -0.0042738628   102.14231              4   0.039161049    0.056521622  
      8700   0             -0.23761271    -0.23761271    -0.010322949    99.416035              3   0.030176219    0.056167711  
      8750   0             -0.31734437    -0.31734437    -0.0064034865   106.84589              3   0.028077822    0.05484516   
      8800   0              0              0              0              104.80047              3   0.028625825    0.05289501   
      8850   0             -0.14158898    -0.14158898     0.050142221    109.56575              3   0.027380819    0.050955406  
      8900   0             -0.026599832   -0.026599832   -0.0018788502   112.12073              4   0.035675828    0.049556648  
      8950   0             -0.55336731    -0.55336731    -0.0084416312   110.11665              4   0.036325117    0.047706911  
      9000   0             -0.28282861    -0.28282861    -0.021508934    112.14293              6   0.053503148    0.046040676  
      9050   0             -0.44413986    -0.44413986    -0.032745585    109.39062              7   0.063990861    0.044803677  
      9100   0             -0.35609226    -0.35609226     0.0037260894   112.81586              7   0.062048013    0.043474325  
      9150   0             -0.28445245    -0.28445245     0.00023388542  111.78082              8   0.071568631    0.043015334  
      9200   0             -0.51279931    -0.51279931     0.049423343    112.65535             10   0.08876631     0.042755179  
      9250   0             -0.55872949    -0.55872949    -0.04013522     110.16787              8   0.072616454    0.042539242  
      9300   0             -0.53697793    -0.53697793    -0.025959775    110.98881              8   0.072079337    0.042968089  
      9350   0             -0.38166441    -0.38166441    -0.020820951    111.64945              7   0.062696234    0.043197078  
      9400   0             -0.61724055    -0.61724055    -0.028638043    105.82195              8   0.07559868     0.045588463  
      9450   0             -0.69476032    -0.69476032    -0.044525504    113.4383               9   0.079338285    0.048045923  
      9500   0             -0.71753333    -0.71753333    -0.029737195    114.00411              9   0.078944523    0.050871286  
      9550   0             -1.0131516     -1.0131516     -0.032628956    112.47793             10   0.088906327    0.054133958  
      9600   0             -0.4787167     -0.4787167     -0.024103657    107.68347             10   0.092864767    0.057761809  
      9650   0             -0.44335638    -0.44335638    -0.057987566    110.71654             10   0.09032074     0.06139141   
      9700   0             -0.71812478    -0.71812478    -0.10902574     102.77795             12   0.11675656     0.065205322  
      9750   0             -0.81456046    -0.81456046     0.056993154    105.38777             15   0.1423315      0.069588069  
      9800   0             -1.0079503     -1.0079503     -0.086941656    105.1668              14   0.13312186     0.074759322  
      9850   0             -1.1272495     -1.1272495     -0.130034       102.36385             15   0.14653611     0.080279127  
      9900   0             -0.92301722    -0.92301722    -0.0095244132   107.46305             13   0.12097182     0.084858467  
      9950   0             -0.65096946    -0.65096946    -0.047748615    107.19693             12   0.1119435      0.088728343  
     10000   0             -1.154241      -1.154241      -0.10710361     102.56582             12   0.11699804     0.091762529  
     10050   0             -0.77235433    -0.77235433    -0.09469628     105.80135             12   0.1134201      0.094606793  
     10100   0             -0.93169482    -0.93169482    -0.064969881    109.16599             12   0.10992434     0.096967336  
     10150   0             -0.69120879    -0.69120879    -0.044427392    109.80869             13   0.11838771     0.099155368  
     10200   0             -0.88656493    -0.88656493    -0.088409358    102.97407             13   0.12624538     0.10103171   
     10250   0             -0.80015791    -0.80015791    -0.059571182    105.3167              14   0.13293238     0.10390588   
Loop time of 46.5982 on 1 procs for 10000 steps with 14 atoms

Performance: 92707.442 tau/day, 214.601 timesteps/s, 3.004 katom-step/s
97.5% CPU use with 1 MPI tasks x 1 OpenMP threads

MPI task timing breakdown:
Section |  min time  |  avg time  |  max time  |%varavg| %total
---------------------------------------------------------------
Pair    | 0.0079392  | 0.0079392  | 0.0079392  |   0.0 |  0.02
Neigh   | 0.025933   | 0.025933   | 0.025933   |   0.0 |  0.06
Comm    | 0.010984   | 0.010984   | 0.010984   |   0.0 |  0.02
Output  | 0.0026354  | 0.0026354  | 0.0026354  |   0.0 |  0.01
Modify  | 46.533     | 46.533     | 46.533     |   0.0 | 99.86
Other   |            | 0.01807    |            |       |  0.04

Nlocal:             14 ave          14 max          14 min
Histogram: 1 0 0 0 0 0 0 0 0 0
Nghost:            128 ave         128 max         128 min
Histogram: 1 0 0 0 0 0 0 0 0 0
Neighs:             86 ave          86 max          86 min
Histogram: 1 0 0 0 0 0 0 0 0 0

Total # of neighbors = 86
Ave neighs/atom = 6.1428571
Neighbor list builds = 422943
Dangerous builds = 0
Total wall time: 0:00:46
