LAMMPS (10 Dec 2025 - Development - patch_10Dec2025-120-ga51f9ba0e7-modified)
OMP_NUM_THREADS environment is not set. Defaulting to 1 thread.
  using 1 OpenMP thread(s) per MPI task
# fix gcmc example with fix shake

# variables available on command line

variable        mu index -8.1
variable	disp index 0.5
variable        temp index 338.0
variable        lbox index 10.0
variable        spacing index 5.0

# global model settings

units           real
atom_style      full
boundary        p p p
pair_style      lj/cut/coul/long  14
pair_modify     mix arithmetic tail yes
kspace_style    ewald 0.0001
bond_style      harmonic
angle_style     harmonic

# box, start molecules on simple cubic lattice

lattice 	sc ${spacing}
lattice 	sc 5.0
Lattice spacing in x,y,z = 5 5 5
region          box block 0 ${lbox} 0 ${lbox} 0 ${lbox} units box
region          box block 0 10.0 0 ${lbox} 0 ${lbox} units box
region          box block 0 10.0 0 10.0 0 ${lbox} units box
region          box block 0 10.0 0 10.0 0 10.0 units box
create_box      2 box                                       bond/types 1                                angle/types 1                               extra/bond/per/atom 2                       extra/angle/per/atom 1                      extra/special/per/atom 2
Created orthogonal box = (0 0 0) to (10 10 10)
  1 by 2 by 2 MPI processor grid

molecule        h2omol H2O.txt
Read molecule template h2omol:
# Water molecule. SPC/E model.
  1 molecules
  0 fragments
  0 bodies
  3 atoms with max type 2
  2 bonds with max type 1
  1 angles with max type 1
  0 dihedrals with max type 0
  0 impropers with max type 0
create_atoms   	0 box mol h2omol 464563 units box
Created 24 atoms
  using box units in orthogonal box = (0 0 0) to (10 10 10)
  create_atoms CPU = 0.002 seconds

# rigid SPC/E water model

pair_coeff      1 1 0.15535 3.166
pair_coeff      * 2 0.0000 0.0000

bond_coeff      1     1000       1.0
angle_coeff     1      100       109.47

# masses

mass 1 15.9994
mass 2 1.0

# MD settings

group           h2o type 1 2
24 atoms in group h2o
neighbor        2.0 bin
neigh_modify    every 1 delay 1 check yes
velocity       	all create ${temp} 54654
velocity       	all create 338.0 54654
timestep        1.0

minimize 0.0 0.0 100 1000
Switching to 'neigh_modify every 1 delay 0 check yes' setting during minimization
Ewald initialization ...
  using 12-bit tables for long-range coulomb
  G vector (1/distance) = 0.17044845
  estimated absolute RMS force accuracy = 0.033206374
  estimated relative force accuracy = 0.00010000001
  KSpace vectors: actual max1d max3d = 16 2 62
                  kxmax kymax kzmax  = 2 2 2
Generated 0 of 1 mixed pair_coeff terms from arithmetic mixing rule
Neighbor list info ...
  update: every = 1 steps, delay = 0 steps, check = yes
  max neighbors/atom: 2000, page size: 100000
  master list distance cutoff = 16
  ghost atom cutoff = 16
  binsize = 8, bins = 2 2 2
  1 neighbor lists, perpetual/occasional/extra = 1 0 0
  (1) pair lj/cut/coul/long, perpetual
      attributes: half, newton on
      pair build: half/bin/newton
      stencil: half/bin/3d
      bin: standard
Per MPI rank memory allocation (min/avg/max) = 11.85 | 11.85 | 11.85 Mbytes
   Step          Temp          E_pair         E_mol          TotEng         Press     
         0   338           -4.9610797      9.2628112e-06  18.211747      730.90744    
       100   338           -15.083062      0.15733571     8.2470909      255.33962    
Loop time of 0.0387411 on 4 procs for 100 steps with 24 atoms

99.6% CPU use with 4 MPI tasks x 1 OpenMP threads

Minimization stats:
  Stopping criterion = max iterations
  Energy initial, next-to-last, final = 
      -4.9610704341957  -14.9222147380404  -14.9257264056654
  Force two-norm initial, final = 15.473961 10.983883
  Force max component initial, final = 5.8004232 3.5492578
  Final line search alpha, max atom move = 0.00078794437 0.0027966177
  Iterations, force evaluations = 100 354

MPI task timing breakdown:
Section |  min time  |  avg time  |  max time  |%varavg| %total
---------------------------------------------------------------
Pair    | 0.0056947  | 0.011213   | 0.019446   |   4.8 | 28.94
Bond    | 0.00011394 | 0.00015457 | 0.00019048 |   0.0 |  0.40
Kspace  | 0.0017871  | 0.009856   | 0.015166   |   5.0 | 25.44
Neigh   | 0          | 0          | 0          |   0.0 |  0.00
Comm    | 0.015698   | 0.015846   | 0.016096   |   0.1 | 40.90
Output  | 1.4866e-05 | 1.7798e-05 | 2.4814e-05 |   0.0 |  0.05
Modify  | 0          | 0          | 0          |   0.0 |  0.00
Other   |            | 0.001653   |            |       |  4.27

Nlocal:              6 ave           8 max           3 min
Histogram: 1 0 0 0 1 0 0 0 0 2
Nghost:           1722 ave        1725 max        1720 min
Histogram: 2 0 0 0 0 0 1 0 0 1
Neighs:        1256.75 ave        2101 max         667 min
Histogram: 1 0 1 0 1 0 0 0 0 1

Total # of neighbors = 5027
Ave neighs/atom = 209.45833
Ave special neighs/atom = 2
Neighbor list builds = 0
Dangerous builds = 0
reset_timestep 0

# rigid constraints with thermostat

fix             mynvt h2o nvt temp ${temp} ${temp} 100
fix             mynvt h2o nvt temp 338.0 ${temp} 100
fix             mynvt h2o nvt temp 338.0 338.0 100
fix             wshake h2o shake 0.0001 50 0 b 1 a 1 mol h2omol
Finding SHAKE clusters ...
       0 = # of size 2 clusters
       0 = # of size 3 clusters
       0 = # of size 4 clusters
       8 = # of frozen angles
  find clusters CPU = 0.000 seconds

# important to make temperature dofs dynamic

compute_modify  thermo_temp dynamic/dof yes
compute_modify  mynvt_temp dynamic/dof yes

run 1000
Ewald initialization ...
  using 12-bit tables for long-range coulomb
  G vector (1/distance) = 0.17044845
  estimated absolute RMS force accuracy = 0.033206374
  estimated relative force accuracy = 0.00010000001
  KSpace vectors: actual max1d max3d = 16 2 62
                  kxmax kymax kzmax  = 2 2 2
Generated 0 of 1 mixed pair_coeff terms from arithmetic mixing rule
Per MPI rank memory allocation (min/avg/max) = 11.6 | 11.6 | 11.6 Mbytes
   Step          Temp          E_pair         E_mol          TotEng         Press     
         0   518.26667     -15.083062      0              8.0897552     -2245.5095    
      1000   305.10867     -52.239388      0             -38.597323     -1662.9216    
Loop time of 0.0979144 on 4 procs for 1000 steps with 24 atoms

Performance: 882.403 ns/day, 0.027 hours/ns, 10213.003 timesteps/s, 245.112 katom-step/s
99.9% CPU use with 4 MPI tasks x 1 OpenMP threads

MPI task timing breakdown:
Section |  min time  |  avg time  |  max time  |%varavg| %total
---------------------------------------------------------------
Pair    | 0.010285   | 0.016234   | 0.027652   |   5.6 | 16.58
Bond    | 7.9138e-05 | 8.6635e-05 | 9.6209e-05 |   0.0 |  0.09
Kspace  | 0.0046531  | 0.01549    | 0.021033   |   5.3 | 15.82
Neigh   | 0.0018238  | 0.0018427  | 0.0018635  |   0.0 |  1.88
Comm    | 0.037769   | 0.038323   | 0.038986   |   0.3 | 39.14
Output  | 1.3378e-05 | 1.5546e-05 | 2.1972e-05 |   0.0 |  0.02
Modify  | 0.024238   | 0.024253   | 0.024271   |   0.0 | 24.77
Other   |            | 0.001669   |            |       |  1.70

Nlocal:              6 ave           8 max           3 min
Histogram: 1 0 0 0 1 0 0 0 0 2
Nghost:        1423.25 ave        1499 max        1352 min
Histogram: 2 0 0 0 0 0 0 0 1 1
Neighs:           1265 ave        2132 max         380 min
Histogram: 1 0 0 0 1 1 0 0 0 1

Total # of neighbors = 5060
Ave neighs/atom = 210.83333
Ave special neighs/atom = 2
Neighbor list builds = 30
Dangerous builds = 0
reset_timestep 0

# gcmc

variable        tfac equal 5.0/3.0 # (3 trans + 2 rot)/(3 trans)
fix             mygcmc h2o gcmc 100 100 0 0 54341 ${temp} ${mu} ${disp} mol                 h2omol tfac_insert ${tfac} group h2o shake wshake
fix             mygcmc h2o gcmc 100 100 0 0 54341 338.0 ${mu} ${disp} mol                 h2omol tfac_insert ${tfac} group h2o shake wshake
fix             mygcmc h2o gcmc 100 100 0 0 54341 338.0 -8.1 ${disp} mol                 h2omol tfac_insert ${tfac} group h2o shake wshake
fix             mygcmc h2o gcmc 100 100 0 0 54341 338.0 -8.1 0.5 mol                 h2omol tfac_insert ${tfac} group h2o shake wshake
fix             mygcmc h2o gcmc 100 100 0 0 54341 338.0 -8.1 0.5 mol                 h2omol tfac_insert 1.66666666666667 group h2o shake wshake

# atom counts

variable 	oxygen atom "type==1"
variable 	hydrogen atom "type==2"
group 	        oxygen dynamic all var oxygen
dynamic group oxygen defined
group 		hydrogen dynamic all var hydrogen
dynamic group hydrogen defined
variable        nO equal count(oxygen)
variable        nH equal count(hydrogen)

# output

variable	tacc equal f_mygcmc[2]/(f_mygcmc[1]+0.1)
variable	iacc equal f_mygcmc[4]/(f_mygcmc[3]+0.1)
variable	dacc equal f_mygcmc[6]/(f_mygcmc[5]+0.1)
variable	racc equal f_mygcmc[8]/(f_mygcmc[7]+0.1)
thermo_style    custom step temp press pe ke density atoms v_iacc v_dacc v_tacc v_racc v_nO v_nH
thermo          1000

# run

run             20000
Ewald initialization ...
  using 12-bit tables for long-range coulomb
  G vector (1/distance) = 0.17044845
  estimated absolute RMS force accuracy = 0.033206374
  estimated relative force accuracy = 0.00010000001
  KSpace vectors: actual max1d max3d = 16 2 62
                  kxmax kymax kzmax  = 2 2 2
Generated 0 of 1 mixed pair_coeff terms from arithmetic mixing rule
WARNING: Fix gcmc using full_energy option (src/MC/fix_gcmc.cpp:544)
0 atoms in group FixGCMC:gcmc_exclusion_group:mygcmc
0 atoms in group FixGCMC:rotation_gas_atoms:mygcmc
WARNING: Neighbor exclusions used with KSpace solver may give inconsistent Coulombic energies (src/neighbor.cpp:659)
Per MPI rank memory allocation (min/avg/max) = 11.6 | 11.6 | 11.6 Mbytes
   Step          Temp          Press          PotEng         KinEng        Density        Atoms        v_iacc         v_dacc         v_tacc         v_racc          v_nO           v_nH     
         0   305.10867     -1663.8235     -52.239388      13.642065      0.23910963            24   0              0              0              0              8              16           
      1000   319.58306     -3645.953      -293.77297      54.299135      0.86677242            87   0.054205983    0.011949811    0              0              29             58           
      2000   319.22212     -3974.5478     -339.37433      59.947051      0.95643854            96   0.031565014    0.0068755525   0              0              32             64           
      3000   324.80637     -1328.8591     -364.07464      64.868469      1.0162159            102   0.021969243    0.0046725853   0              0              34             68           
      4000   368.15426      2129.2349     -362.7245       73.525661      1.0162159            102   0.016400775    0.0035209497   0              0              34             68           
      5000   288.89776     -1331.7625     -336.53131      57.697006      1.0162159            102   0.012996731    0.0028442566   0              0              34             68           
      6000   340.69363      11.772553     -369.16322      68.041382      1.0162159            102   0.011272836    0.0026808753   0              0              34             68           
      7000   374.07337      1350.198      -372.92456      76.937875      1.0461046            105   0.0098923151   0.0023107363   0              0              35             70           
      8000   377.65253     -436.19571     -378.00573      77.674021      1.0461046            105   0.0087105846   0.0020089902   0              0              35             70           
      9000   314.70424     -1304.9329     -387.67425      64.727075      1.0461046            105   0.0077175806   0.0017916732   0              0              35             70           
     10000   347.30841      3844.7472     -389.37954      73.503488      1.0759934            108   0.0071412985   0.0016131959   0              0              36             72           
     11000   296.7898       3436.9844     -390.85217      62.811855      1.0759934            108   0.0064840331   0.0014684018   0              0              36             72           
     12000   289.87772      2860.3518     -403.62272      61.348999      1.0759934            108   0.0059493315   0.0013447412   0              0              36             72           
     13000   346.08487      1639.9923     -391.41374      73.244542      1.0759934            108   0.005490232    0.0012416383   0              0              36             72           
     14000   291.81351      2872.2916     -381.89264      61.758685      1.0759934            108   0.0051077595   0.0011507314   0              0              36             72           
     15000   366.26916      4277.4611     -401.20008      77.516294      1.0759934            108   0.004761212    0.0010753989   0              0              36             72           
     16000   301.99302      1908.4819     -411.33478      63.913052      1.0759934            108   0.0045962162   0.0011320612   0              0              36             72           
     17000   347.29177      538.92762     -385.32147      73.499966      1.0759934            108   0.0043238948   0.0010659592   0              0              36             72           
     18000   327.81737      73.354876     -392.28445      69.378453      1.0759934            108   0.0040910649   0.0010049017   0              0              36             72           
     19000   331.48713      4186.0798     -416.24752      72.131312      1.1058821            111   0.0039877848   0.00095025921  0              0              37             74           
     20000   300.85194      1548.6764     -421.18718      65.465122      1.1058821            111   0.0037874635   0.00090297077  0              0              37             74           
Loop time of 59.7802 on 4 procs for 20000 steps with 111 atoms

Performance: 28.906 ns/day, 0.830 hours/ns, 334.559 timesteps/s, 37.136 katom-step/s
99.9% CPU use with 4 MPI tasks x 1 OpenMP threads

MPI task timing breakdown:
Section |  min time  |  avg time  |  max time  |%varavg| %total
---------------------------------------------------------------
Pair    | 7.7247     | 10.632     | 13.073     |  62.0 | 17.79
Bond    | 0.019096   | 0.020375   | 0.021939   |   0.7 |  0.03
Kspace  | 0.58846    | 3.0282     | 5.935      | 116.1 |  5.07
Neigh   | 0.70022    | 0.70036    | 0.70042    |   0.0 |  1.17
Comm    | 1.7764     | 1.7771     | 1.7781     |   0.1 |  2.97
Output  | 0.0007342  | 0.0007973  | 0.00098524 |   0.0 |  0.00
Modify  | 43.535     | 43.535     | 43.535     |   0.0 | 72.83
Other   |            | 0.08623    |            |       |  0.14

Nlocal:          27.75 ave          29 max          26 min
Histogram: 1 0 0 1 0 0 0 0 0 2
Nghost:        6329.25 ave        6400 max        6271 min
Histogram: 1 0 0 1 1 0 0 0 0 1
Neighs:        26374.2 ave       34776 max       17543 min
Histogram: 1 0 0 1 0 0 0 1 0 1

Total # of neighbors = 105497
Ave neighs/atom = 950.42342
Ave special neighs/atom = 2
Neighbor list builds = 20907
Dangerous builds = 0

Total wall time: 0:00:59
