LAMMPS (10 Sep 2025 - Development - patch_10Sep2025-659-gb375467373-modified)
Running on 2 partitions of processors
 GEMC run progress:   1% 
  Trans: 912/1014
  Vol: 241/984
  Ex: 18/1002
  Replica Volume Nparticles Density:
   1: 82.3214 4 0.04859
   2: 177.679 108 0.607839
   Total: 260 112 0.430769
 GEMC run progress:   2% 
  Trans: 861/980
  Vol: 188/1035
  Ex: 19/985
  Replica Volume Nparticles Density:
   1: 88.3806 5 0.0565735
   2: 171.619 107 0.623473
   Total: 260 112 0.430769
 GEMC run progress:   3% 
  Trans: 745/1012
  Vol: 162/1003
  Ex: 20/985
  Replica Volume Nparticles Density:
   1: 87.4532 7 0.0800428
   2: 172.547 105 0.608531
   Total: 260 112 0.430769
 GEMC run progress:   4% 
  Trans: 762/1009
  Vol: 158/962
  Ex: 18/1029
  Replica Volume Nparticles Density:
   1: 93.6455 5 0.0533929
   2: 166.355 107 0.643205
   Total: 260 112 0.430769
 GEMC run progress:   5% 
  Trans: 911/976
  Vol: 152/982
  Ex: 19/1042
  Replica Volume Nparticles Density:
   1: 91.133 2 0.021946
   2: 168.867 110 0.6514
   Total: 260 112 0.430769
 GEMC run progress:   6% 
  Trans: 879/1037
  Vol: 135/940
  Ex: 8/1023
  Replica Volume Nparticles Density:
   1: 102.214 4 0.0391335
   2: 157.786 108 0.684472
   Total: 260 112 0.430769
 GEMC run progress:   7% 
  Trans: 804/963
  Vol: 152/1078
  Ex: 8/959
  Replica Volume Nparticles Density:
   1: 106.108 6 0.0565462
   2: 153.892 106 0.688794
   Total: 260 112 0.430769
 GEMC run progress:   8% 
  Trans: 849/1007
  Vol: 157/993
  Ex: 15/1000
  Replica Volume Nparticles Density:
   1: 97.9629 5 0.0510397
   2: 162.037 107 0.660343
   Total: 260 112 0.430769
 GEMC run progress:   9% 
  Trans: 859/1015
  Vol: 140/962
  Ex: 1/1023
  Replica Volume Nparticles Density:
   1: 108.144 4 0.0369876
   2: 151.856 108 0.711201
   Total: 260 112 0.430769
 GEMC run progress:  10% 
  Trans: 870/1004
  Vol: 132/993
  Ex: 2/1003
  Replica Volume Nparticles Density:
   1: 102.071 4 0.0391884
   2: 157.929 108 0.683852
   Total: 260 112 0.430769
 GEMC run progress:  11% 
  Trans: 932/1018
  Vol: 123/986
  Ex: 11/996
  Replica Volume Nparticles Density:
   1: 98.6029 1 0.0101417
   2: 161.397 111 0.687745
   Total: 260 112 0.430769
 GEMC run progress:  12% 
  Trans: 821/1003
  Vol: 150/1016
  Ex: 12/981
  Replica Volume Nparticles Density:
   1: 92.1928 5 0.0542342
   2: 167.807 107 0.637636
   Total: 260 112 0.430769
 GEMC run progress:  13% 
  Trans: 890/1013
  Vol: 149/1007
  Ex: 18/980
  Replica Volume Nparticles Density:
   1: 93.0554 1 0.0107463
   2: 166.945 111 0.664891
   Total: 260 112 0.430769
 GEMC run progress:  14% 
  Trans: 934/988
  Vol: 134/993
  Ex: 7/1019
  Replica Volume Nparticles Density:
   1: 99.91 4 0.040036
   2: 160.09 108 0.674621
   Total: 260 112 0.430769
 GEMC run progress:  15% 
  Trans: 794/959
  Vol: 136/973
  Ex: 14/1068
  Replica Volume Nparticles Density:
   1: 97.3044 4 0.0411081
   2: 162.696 108 0.663817
   Total: 260 112 0.430769
 GEMC run progress:  16% 
  Trans: 854/965
  Vol: 144/1026
  Ex: 10/1009
  Replica Volume Nparticles Density:
   1: 103.374 2 0.0193473
   2: 156.626 110 0.702308
   Total: 260 112 0.430769
 GEMC run progress:  17% 
  Trans: 944/1002
  Vol: 147/951
  Ex: 6/1047
  Replica Volume Nparticles Density:
   1: 102.523 2 0.0195079
   2: 157.477 110 0.698513
   Total: 260 112 0.430769
 GEMC run progress:  18% 
  Trans: 872/1005
  Vol: 135/954
  Ex: 14/1041
  Replica Volume Nparticles Density:
   1: 98.741 2 0.020255
   2: 161.259 110 0.682132
   Total: 260 112 0.430769
 GEMC run progress:  19% 
  Trans: 915/1030
  Vol: 150/984
  Ex: 12/986
  Replica Volume Nparticles Density:
   1: 104.327 4 0.0383411
   2: 155.673 108 0.69376
   Total: 260 112 0.430769
 GEMC run progress:  20% 
  Trans: 916/1011
  Vol: 134/995
  Ex: 7/994
  Replica Volume Nparticles Density:
   1: 92.311 1 0.0108329
   2: 167.689 111 0.66194
   Total: 260 112 0.430769
 GEMC run progress:  21% 
  Trans: 834/958
  Vol: 153/963
  Ex: 12/1079
  Replica Volume Nparticles Density:
   1: 101.782 5 0.0491248
   2: 158.218 107 0.67628
   Total: 260 112 0.430769
 GEMC run progress:  22% 
  Trans: 862/1041
  Vol: 141/959
  Ex: 7/1000
  Replica Volume Nparticles Density:
   1: 107.501 8 0.0744181
   2: 152.499 104 0.68197
   Total: 260 112 0.430769
 GEMC run progress:  23% 
  Trans: 673/980
  Vol: 146/1040
  Ex: 16/980
  Replica Volume Nparticles Density:
   1: 91.0973 6 0.0658636
   2: 168.903 106 0.62758
   Total: 260 112 0.430769
 GEMC run progress:  24% 
  Trans: 857/1015
  Vol: 144/949
  Ex: 11/1036
  Replica Volume Nparticles Density:
   1: 100.907 5 0.0495504
   2: 159.093 107 0.672564
   Total: 260 112 0.430769
 GEMC run progress:  25% 
  Trans: 800/1010
  Vol: 167/1019
  Ex: 9/971
  Replica Volume Nparticles Density:
   1: 101.501 8 0.0788166
   2: 158.499 104 0.656157
   Total: 260 112 0.430769
 GEMC run progress:  26% 
  Trans: 739/1027
  Vol: 139/1011
  Ex: 6/962
  Replica Volume Nparticles Density:
   1: 103.017 8 0.0776572
   2: 156.983 104 0.662491
   Total: 260 112 0.430769
 GEMC run progress:  27% 
  Trans: 807/1001
  Vol: 187/998
  Ex: 20/1001
  Replica Volume Nparticles Density:
   1: 92.7202 2 0.0215703
   2: 167.28 110 0.657581
   Total: 260 112 0.430769
 GEMC run progress:  28% 
  Trans: 916/1017
  Vol: 157/983
  Ex: 14/1000
  Replica Volume Nparticles Density:
   1: 91.3415 4 0.0437917
   2: 168.658 108 0.640347
   Total: 260 112 0.430769
 GEMC run progress:  29% 
  Trans: 825/1010
  Vol: 171/974
  Ex: 20/1046
  Replica Volume Nparticles Density:
   1: 87.9115 8 0.0910006
   2: 172.089 104 0.60434
   Total: 260 112 0.430769
 GEMC run progress:  30% 
  Trans: 807/947
  Vol: 183/1014
  Ex: 27/1009
  Replica Volume Nparticles Density:
   1: 78.6261 1 0.0127184
   2: 181.374 111 0.611995
   Total: 260 112 0.430769
 GEMC run progress:  31% 
  Trans: 948/1011
  Vol: 174/978
  Ex: 23/1011
  Replica Volume Nparticles Density:
   1: 81.5042 4 0.0490772
   2: 178.496 108 0.605056
   Total: 260 112 0.430769
 GEMC run progress:  32% 
  Trans: 957/1010
  Vol: 196/981
  Ex: 24/1009
  Replica Volume Nparticles Density:
   1: 79.5461 4 0.0502853
   2: 180.454 108 0.598491
   Total: 260 112 0.430769
 GEMC run progress:  33% 
  Trans: 905/1023
  Vol: 190/1044
  Ex: 15/933
  Replica Volume Nparticles Density:
   1: 86.3152 3 0.0347563
   2: 173.685 109 0.627574
   Total: 260 112 0.430769
 GEMC run progress:  34% 
  Trans: 883/1005
  Vol: 152/978
  Ex: 14/1017
  Replica Volume Nparticles Density:
   1: 90.1242 3 0.0332874
   2: 169.876 109 0.641645
   Total: 260 112 0.430769
 GEMC run progress:  35% 
  Trans: 800/972
  Vol: 162/997
  Ex: 19/1031
  Replica Volume Nparticles Density:
   1: 81.7208 4 0.0489471
   2: 178.279 108 0.605791
   Total: 260 112 0.430769
 GEMC run progress:  36% 
  Trans: 868/1011
  Vol: 171/1007
  Ex: 31/982
  Replica Volume Nparticles Density:
   1: 82.1433 3 0.0365215
   2: 177.857 109 0.612853
   Total: 260 112 0.430769
 GEMC run progress:  37% 
  Trans: 808/954
  Vol: 205/995
  Ex: 34/1051
  Replica Volume Nparticles Density:
   1: 82.3582 3 0.0364262
   2: 177.642 109 0.613594
   Total: 260 112 0.430769
 GEMC run progress:  38% 
  Trans: 962/1032
  Vol: 187/962
  Ex: 24/1006
  Replica Volume Nparticles Density:
   1: 86.6562 1 0.0115399
   2: 173.344 111 0.640346
   Total: 260 112 0.430769
 GEMC run progress:  39% 
  Trans: 926/970
  Vol: 176/1048
  Ex: 12/982
  Replica Volume Nparticles Density:
   1: 88.7142 5 0.0563608
   2: 171.286 107 0.624687
   Total: 260 112 0.430769
 GEMC run progress:  40% 
  Trans: 855/951
  Vol: 202/1059
  Ex: 20/990
  Replica Volume Nparticles Density:
   1: 80.8091 1 0.0123748
   2: 179.191 111 0.619451
   Total: 260 112 0.430769
 GEMC run progress:  41% 
  Trans: 913/1002
  Vol: 165/994
  Ex: 24/1004
  Replica Volume Nparticles Density:
   1: 88.3096 1 0.0113238
   2: 171.69 111 0.646513
   Total: 260 112 0.430769
 GEMC run progress:  42% 
  Trans: 914/1003
  Vol: 155/966
  Ex: 17/1031
  Replica Volume Nparticles Density:
   1: 90.6421 2 0.0220648
   2: 169.358 110 0.649512
   Total: 260 112 0.430769
 GEMC run progress:  43% 
  Trans: 775/1018
  Vol: 154/961
  Ex: 20/1021
  Replica Volume Nparticles Density:
   1: 91.7677 6 0.0653825
   2: 168.232 106 0.630081
   Total: 260 112 0.430769
 GEMC run progress:  44% 
  Trans: 748/986
  Vol: 176/1002
  Ex: 11/1012
  Replica Volume Nparticles Density:
   1: 98.2326 9 0.0916193
   2: 161.767 103 0.636716
   Total: 260 112 0.430769
 GEMC run progress:  45% 
  Trans: 742/958
  Vol: 174/1007
  Ex: 21/1035
  Replica Volume Nparticles Density:
   1: 81.7838 6 0.0733642
   2: 178.216 106 0.594783
   Total: 260 112 0.430769
 GEMC run progress:  46% 
  Trans: 809/975
  Vol: 206/1035
  Ex: 26/990
  Replica Volume Nparticles Density:
   1: 86.9749 6 0.0689854
   2: 173.025 106 0.612628
   Total: 260 112 0.430769
 GEMC run progress:  47% 
  Trans: 875/1007
  Vol: 191/1019
  Ex: 14/974
  Replica Volume Nparticles Density:
   1: 74.8503 2 0.02672
   2: 185.15 110 0.594114
   Total: 260 112 0.430769
 GEMC run progress:  48% 
  Trans: 910/1016
  Vol: 216/964
  Ex: 36/1020
  Replica Volume Nparticles Density:
   1: 71.2708 4 0.0561239
   2: 188.729 108 0.572249
   Total: 260 112 0.430769
 GEMC run progress:  49% 
  Trans: 878/992
  Vol: 207/985
  Ex: 32/1023
  Replica Volume Nparticles Density:
   1: 79.7645 2 0.0250738
   2: 180.236 110 0.610313
   Total: 260 112 0.430769
 GEMC run progress:  50% 
  Trans: 980/1020
  Vol: 199/979
  Ex: 19/1001
  Replica Volume Nparticles Density:
   1: 76.964 1 0.0129931
   2: 183.036 111 0.606438
   Total: 260 112 0.430769
 GEMC run progress:  51% 
  Trans: 979/1062
  Vol: 178/953
  Ex: 23/985
  Replica Volume Nparticles Density:
   1: 78.8869 2 0.0253527
   2: 181.113 110 0.607355
   Total: 260 112 0.430769
 GEMC run progress:  52% 
  Trans: 975/1009
  Vol: 191/979
  Ex: 23/1012
  Replica Volume Nparticles Density:
   1: 85.7674 3 0.0349783
   2: 174.233 109 0.625601
   Total: 260 112 0.430769
 GEMC run progress:  53% 
  Trans: 868/969
  Vol: 179/1024
  Ex: 12/1007
  Replica Volume Nparticles Density:
   1: 85.7113 3 0.0350012
   2: 174.289 109 0.625399
   Total: 260 112 0.430769
 GEMC run progress:  54% 
  Trans: 930/1027
  Vol: 179/1002
  Ex: 20/971
  Replica Volume Nparticles Density:
   1: 87.0186 1 0.0114918
   2: 172.981 111 0.641687
   Total: 260 112 0.430769
 GEMC run progress:  55% 
  Trans: 919/952
  Vol: 196/984
  Ex: 23/1064
  Replica Volume Nparticles Density:
   1: 80.9914 2 0.024694
   2: 179.009 110 0.614496
   Total: 260 112 0.430769
 GEMC run progress:  56% 
  Trans: 871/1001
  Vol: 172/1006
  Ex: 18/993
  Replica Volume Nparticles Density:
   1: 91.2168 2 0.0219258
   2: 168.783 110 0.651724
   Total: 260 112 0.430769
 GEMC run progress:  57% 
  Trans: 945/970
  Vol: 160/1026
  Ex: 7/1034
  Replica Volume Nparticles Density:
   1: 89.0703 1 0.0112271
   2: 170.93 111 0.64939
   Total: 260 112 0.430769
 GEMC run progress:  58% 
  Trans: 967/1004
  Vol: 149/986
  Ex: 20/1010
  Replica Volume Nparticles Density:
   1: 87.6318 1 0.0114114
   2: 172.368 111 0.64397
   Total: 260 112 0.430769
 GEMC run progress:  59% 
  Trans: 761/976
  Vol: 173/972
  Ex: 23/1022
  Replica Volume Nparticles Density:
   1: 91.6864 6 0.0654405
   2: 168.314 106 0.629777
   Total: 260 112 0.430769
 GEMC run progress:  60% 
  Trans: 677/970
  Vol: 185/1030
  Ex: 14/1000
  Replica Volume Nparticles Density:
   1: 89.2906 8 0.0895951
   2: 170.709 104 0.609222
   Total: 260 112 0.430769
 GEMC run progress:  61% 
  Trans: 657/1035
  Vol: 159/941
  Ex: 40/1024
  Replica Volume Nparticles Density:
   1: 89.9535 8 0.0889349
   2: 170.047 104 0.611597
   Total: 260 112 0.430769
 GEMC run progress:  62% 
  Trans: 738/1012
  Vol: 162/991
  Ex: 17/997
  Replica Volume Nparticles Density:
   1: 89.7644 5 0.0557014
   2: 170.236 107 0.628541
   Total: 260 112 0.430769
 GEMC run progress:  63% 
  Trans: 737/987
  Vol: 199/1016
  Ex: 26/997
  Replica Volume Nparticles Density:
   1: 88.8625 9 0.10128
   2: 171.137 103 0.601855
   Total: 260 112 0.430769
 GEMC run progress:  64% 
  Trans: 571/958
  Vol: 171/1052
  Ex: 19/990
  Replica Volume Nparticles Density:
   1: 90.231 10 0.110827
   2: 169.769 102 0.600816
   Total: 260 112 0.430769
 GEMC run progress:  65% 
  Trans: 598/1013
  Vol: 162/999
  Ex: 14/988
  Replica Volume Nparticles Density:
   1: 99.5688 16 0.160693
   2: 160.431 96 0.598387
   Total: 260 112 0.430769
 GEMC run progress:  66% 
  Trans: 619/1034
  Vol: 165/1009
  Ex: 18/957
  Replica Volume Nparticles Density:
   1: 106.845 14 0.131031
   2: 153.155 98 0.639875
   Total: 260 112 0.430769
 GEMC run progress:  67% 
  Trans: 674/1018
  Vol: 133/1027
  Ex: 9/955
  Replica Volume Nparticles Density:
   1: 111.622 13 0.116465
   2: 148.378 99 0.667213
   Total: 260 112 0.430769
 GEMC run progress:  68% 
  Trans: 630/989
  Vol: 131/1039
  Ex: 12/972
  Replica Volume Nparticles Density:
   1: 110.361 13 0.117795
   2: 149.639 99 0.661592
   Total: 260 112 0.430769
 GEMC run progress:  69% 
  Trans: 582/1010
  Vol: 117/999
  Ex: 11/991
  Replica Volume Nparticles Density:
   1: 111.942 12 0.107199
   2: 148.058 100 0.67541
   Total: 260 112 0.430769
 GEMC run progress:  70% 
  Trans: 684/972
  Vol: 117/1008
  Ex: 5/1020
  Replica Volume Nparticles Density:
   1: 112.317 11 0.0979374
   2: 147.683 101 0.683895
   Total: 260 112 0.430769
 GEMC run progress:  71% 
  Trans: 741/1003
  Vol: 149/1023
  Ex: 10/974
  Replica Volume Nparticles Density:
   1: 113.038 5 0.0442328
   2: 146.962 107 0.728081
   Total: 260 112 0.430769
 GEMC run progress:  72% 
  Trans: 825/1001
  Vol: 102/1005
  Ex: 10/994
  Replica Volume Nparticles Density:
   1: 111.844 7 0.062587
   2: 148.156 105 0.708714
   Total: 260 112 0.430769
 GEMC run progress:  73% 
  Trans: 759/982
  Vol: 127/999
  Ex: 9/1019
  Replica Volume Nparticles Density:
   1: 107.474 6 0.0558274
   2: 152.526 106 0.694964
   Total: 260 112 0.430769
 GEMC run progress:  74% 
  Trans: 779/985
  Vol: 116/1022
  Ex: 7/993
  Replica Volume Nparticles Density:
   1: 102.455 3 0.0292813
   2: 157.545 109 0.691864
   Total: 260 112 0.430769
 GEMC run progress:  75% 
  Trans: 859/964
  Vol: 107/1008
  Ex: 6/1028
  Replica Volume Nparticles Density:
   1: 104.567 7 0.0669428
   2: 155.433 105 0.675532
   Total: 260 112 0.430769
 GEMC run progress:  76% 
  Trans: 759/970
  Vol: 123/997
  Ex: 9/1033
  Replica Volume Nparticles Density:
   1: 101.245 6 0.059262
   2: 158.755 106 0.667697
   Total: 260 112 0.430769
 GEMC run progress:  77% 
  Trans: 779/971
  Vol: 135/1024
  Ex: 6/1005
  Replica Volume Nparticles Density:
   1: 105.848 8 0.0755798
   2: 154.152 104 0.67466
   Total: 260 112 0.430769
 GEMC run progress:  78% 
  Trans: 745/1009
  Vol: 139/995
  Ex: 11/996
  Replica Volume Nparticles Density:
   1: 107.01 7 0.0654144
   2: 152.99 105 0.68632
   Total: 260 112 0.430769
 GEMC run progress:  79% 
  Trans: 713/994
  Vol: 142/997
  Ex: 14/1009
  Replica Volume Nparticles Density:
   1: 101.072 9 0.0890456
   2: 158.928 103 0.648092
   Total: 260 112 0.430769
 GEMC run progress:  80% 
  Trans: 715/1017
  Vol: 139/999
  Ex: 7/984
  Replica Volume Nparticles Density:
   1: 106.437 8 0.0751621
   2: 153.563 104 0.677245
   Total: 260 112 0.430769
 GEMC run progress:  81% 
  Trans: 711/959
  Vol: 121/997
  Ex: 10/1044
  Replica Volume Nparticles Density:
   1: 103.384 4 0.0386906
   2: 156.616 108 0.689586
   Total: 260 112 0.430769
 GEMC run progress:  82% 
  Trans: 895/986
  Vol: 133/1020
  Ex: 4/994
  Replica Volume Nparticles Density:
   1: 101.824 2 0.0196418
   2: 158.176 110 0.695427
   Total: 260 112 0.430769
 GEMC run progress:  83% 
  Trans: 977/1030
  Vol: 142/997
  Ex: 8/973
  Replica Volume Nparticles Density:
   1: 93.6079 2 0.0213657
   2: 166.392 110 0.661089
   Total: 260 112 0.430769
 GEMC run progress:  84% 
  Trans: 956/998
  Vol: 131/996
  Ex: 10/1006
  Replica Volume Nparticles Density:
   1: 102.142 4 0.039161
   2: 157.858 108 0.684161
   Total: 260 112 0.430769
 GEMC run progress:  85% 
  Trans: 828/998
  Vol: 156/983
  Ex: 3/1019
  Replica Volume Nparticles Density:
   1: 106.846 3 0.0280778
   2: 153.154 109 0.711701
   Total: 260 112 0.430769
 GEMC run progress:  86% 
  Trans: 907/995
  Vol: 133/1007
  Ex: 6/998
  Replica Volume Nparticles Density:
   1: 109.566 3 0.0273808
   2: 150.434 109 0.724569
   Total: 260 112 0.430769
 GEMC run progress:  87% 
  Trans: 846/921
  Vol: 133/1029
  Ex: 3/1050
  Replica Volume Nparticles Density:
   1: 110.117 4 0.0363251
   2: 149.883 108 0.72056
   Total: 260 112 0.430769
 GEMC run progress:  88% 
  Trans: 838/1009
  Vol: 123/988
  Ex: 7/1003
  Replica Volume Nparticles Density:
   1: 109.391 7 0.0639909
   2: 150.609 105 0.697168
   Total: 260 112 0.430769
 GEMC run progress:  89% 
  Trans: 795/981
  Vol: 109/999
  Ex: 5/1020
  Replica Volume Nparticles Density:
   1: 111.781 8 0.0715686
   2: 148.219 104 0.701664
   Total: 260 112 0.430769
 GEMC run progress:  90% 
  Trans: 764/990
  Vol: 142/1007
  Ex: 6/1003
  Replica Volume Nparticles Density:
   1: 110.168 8 0.0726165
   2: 149.832 104 0.69411
   Total: 260 112 0.430769
 GEMC run progress:  91% 
  Trans: 760/998
  Vol: 126/994
  Ex: 7/1008
  Replica Volume Nparticles Density:
   1: 111.649 7 0.0626962
   2: 148.351 105 0.707783
   Total: 260 112 0.430769
 GEMC run progress:  92% 
  Trans: 715/981
  Vol: 107/1041
  Ex: 6/978
  Replica Volume Nparticles Density:
   1: 113.438 9 0.0793383
   2: 146.562 103 0.702776
   Total: 260 112 0.430769
 GEMC run progress:  93% 
  Trans: 629/993
  Vol: 127/1008
  Ex: 5/999
  Replica Volume Nparticles Density:
   1: 112.478 10 0.0889063
   2: 147.522 102 0.691422
   Total: 260 112 0.430769
 GEMC run progress:  94% 
  Trans: 663/1026
  Vol: 123/1034
  Ex: 10/940
  Replica Volume Nparticles Density:
   1: 110.717 10 0.0903207
   2: 149.283 102 0.683264
   Total: 260 112 0.430769
 GEMC run progress:  95% 
  Trans: 705/1023
  Vol: 149/975
  Ex: 15/1002
  Replica Volume Nparticles Density:
   1: 105.388 15 0.142332
   2: 154.612 97 0.627376
   Total: 260 112 0.430769
 GEMC run progress:  96% 
  Trans: 615/995
  Vol: 144/1019
  Ex: 20/986
  Replica Volume Nparticles Density:
   1: 102.364 15 0.146536
   2: 157.636 97 0.615341
   Total: 260 112 0.430769
 GEMC run progress:  97% 
  Trans: 625/1050
  Vol: 156/978
  Ex: 15/972
  Replica Volume Nparticles Density:
   1: 107.197 12 0.111943
   2: 152.803 100 0.654437
   Total: 260 112 0.430769
 GEMC run progress:  98% 
  Trans: 668/962
  Vol: 126/973
  Ex: 8/1065
  Replica Volume Nparticles Density:
   1: 105.801 12 0.11342
   2: 154.199 100 0.648514
   Total: 260 112 0.430769
 GEMC run progress:  99% 
  Trans: 611/1019
  Vol: 142/978
  Ex: 7/1003
  Replica Volume Nparticles Density:
   1: 109.809 13 0.118388
   2: 150.191 99 0.659159
   Total: 260 112 0.430769
 GEMC run progress: 100% 
  Trans: 635/992
  Vol: 126/987
  Ex: 11/1021
  Replica Volume Nparticles Density:
   1: 105.317 14 0.132932
   2: 154.683 98 0.633553
   Total: 260 112 0.430769
