LAMMPS (10 Sep 2025 - Development - patch_10Sep2025-522-g338caa7f33-modified)
Processor partition = 0
OMP_NUM_THREADS environment is not set. Defaulting to 1 thread.
  using 1 OpenMP thread(s) per MPI task
# 3d Lennard-Jones melt to vapor-liquid mixture GEMC
# mpirun -np 5 ./lmp -in in.gemc.lj -p 1 4

variable        temp index 1.0
variable        ntranslate index 10
variable        nexchange index 10
variable        nvolume index 10
variable        displace index 0.5
variable        max_volume index 100.0
variable        nsteps index 10000

units           lj
atom_style      atomic

# initialize gas state in partition 1

partition       yes 1 lattice fcc 0.05
lattice fcc 0.05
Lattice spacing in x,y,z = 4.3088694 4.3088694 4.3088694
partition       yes 1 region box block 0 1 0 1 0 1
region box block 0 1 0 1 0 1

# initialize liquid state in partition 2

partition       yes 2 lattice fcc 0.6
partition       yes 2 region box block 0 3 0 3 0 3

create_box      1 box
Created orthogonal box = (0 0 0) to (4.3088694 4.3088694 4.3088694)
  1 by 1 by 1 MPI processor grid
create_atoms    1 box
Created 4 atoms
  using lattice units in orthogonal box = (0 0 0) to (4.3088694 4.3088694 4.3088694)
  create_atoms CPU = 0.000 seconds
mass            1 1.0

velocity        all create 3.0 87287 loop geom

pair_style      lj/cut 2.5
pair_coeff      1 1 1.0 1.0 2.5

neighbor        0.3 bin
neigh_modify    every 1 delay 5 check yes

fix             1 all nve

thermo          50
thermo_style    custom step temp pe etotal press vol atoms density
run             250
Generated 0 of 0 mixed pair_coeff terms from geometric mixing rule
Neighbor list info ...
  update: every = 1 steps, delay = 5 steps, check = yes
  max neighbors/atom: 2000, page size: 100000
  master list distance cutoff = 2.8
  ghost atom cutoff = 2.8
  binsize = 1.4, bins = 4 4 4
  1 neighbor lists, perpetual/occasional/extra = 1 0 0
  (1) pair lj/cut, perpetual
      attributes: half, newton on
      pair build: half/bin/atomonly/newton
      stencil: half/bin/3d
      bin: standard
Per MPI rank memory allocation (min/avg/max) = 3.059 | 3.059 | 3.059 Mbytes
   Step          Temp          PotEng         TotEng         Press          Volume        Atoms       Density    
         0   3              0              3.375          0.1125         80                     4   0.05         
        50   3.0165043     -0.026598173    3.3669691      0.11051182     80                     4   0.05         
       100   3.0488308     -0.071119653    3.358815       0.10745073     80                     4   0.05         
       150   3.1012973     -0.12610199     3.3628575      0.10509185     80                     4   0.05         
       200   3.2255871     -0.27398268     3.3548028      0.14486233     80                     4   0.05         
       250   3.1160493     -0.15079937     3.354756       0.10385735     80                     4   0.05         
Loop time of 0.000290117 on 1 procs for 250 steps with 4 atoms

Performance: 372263603.994 tau/day, 861721.306 timesteps/s, 3.447 Matom-step/s
99.3% CPU use with 1 MPI tasks x 1 OpenMP threads

MPI task timing breakdown:
Section |  min time  |  avg time  |  max time  |%varavg| %total
---------------------------------------------------------------
Pair    | 3.6228e-05 | 3.6228e-05 | 3.6228e-05 |   0.0 | 12.49
Neigh   | 4.6586e-05 | 4.6586e-05 | 4.6586e-05 |   0.0 | 16.06
Comm    | 9.5818e-05 | 9.5818e-05 | 9.5818e-05 |   0.0 | 33.03
Output  | 1.3452e-05 | 1.3452e-05 | 1.3452e-05 |   0.0 |  4.64
Modify  | 4.3541e-05 | 4.3541e-05 | 4.3541e-05 |   0.0 | 15.01
Other   |            | 5.449e-05  |            |       | 18.78

Nlocal:              4 ave           4 max           4 min
Histogram: 1 0 0 0 0 0 0 0 0 0
Nghost:             52 ave          52 max          52 min
Histogram: 1 0 0 0 0 0 0 0 0 0
Neighs:              7 ave           7 max           7 min
Histogram: 1 0 0 0 0 0 0 0 0 0

Total # of neighbors = 7
Ave neighs/atom = 1.75
Neighbor list builds = 31
Dangerous builds = 0
unfix           1

velocity        all create 0.0 87287 loop geom

#   args: nevery ntranslate nexchange nvolume box_temp displace max_volume seed

fix              2 all gemc 1 ${ntranslate} ${nexchange} ${nvolume} ${temp} ${displace} ${max_volume} 29494
fix              2 all gemc 1 10 ${nexchange} ${nvolume} ${temp} ${displace} ${max_volume} 29494
fix              2 all gemc 1 10 10 ${nvolume} ${temp} ${displace} ${max_volume} 29494
fix              2 all gemc 1 10 10 10 ${temp} ${displace} ${max_volume} 29494
fix              2 all gemc 1 10 10 10 1.0 ${displace} ${max_volume} 29494
fix              2 all gemc 1 10 10 10 1.0 0.5 ${max_volume} 29494
fix              2 all gemc 1 10 10 10 1.0 0.5 100.0 29494

variable        mydensity equal density
fix             3 all ave/time 1 50 50 v_mydensity ave window 20
thermo_style    custom step temp pe etotal press vol atoms density f_3

run             ${nsteps}
run             10000
WARNING: No fixes with time integration, atoms won't move
For more information see https://docs.lammps.org/err0028 (src/verlet.cpp:60)
Generated 0 of 0 mixed pair_coeff terms from geometric mixing rule
0 atoms in group FixGEMC:gemc_exclusion_group:2
Per MPI rank memory allocation (min/avg/max) = 3.059 | 3.059 | 3.059 Mbytes
   Step          Temp          PotEng         TotEng         Press          Volume        Atoms       Density          f_3      
       250   0             -0.15079937    -0.15079937    -0.012994499    80                     4   0.05           0            
       300   0             -0.36741183    -0.36741183    -0.00037597372  73.289829              4   0.054577833    0.054688723  
       350   0             -0.4548594     -0.4548594     -0.061596957    68.024514              6   0.088203496    0.060887781  
       400   0             -0.20309793    -0.20309793    -0.030990105    75.401606              6   0.079573902    0.070282362  
       450   0             -0.062658047   -0.062658047   -0.0052780847   69.444547              3   0.043199936    0.064548586  
       500   0             -0.28780066    -0.28780066    -0.026915222    72.384237              4   0.055260651    0.059930406  
       550   0             -0.0073465333  -0.0073465333  -0.00059136891  74.122283              3   0.040473659    0.057589104  
       600   0             -0.009110479   -0.009110479   -0.00048267291  75.15314               2   0.026612328    0.0561165    
       650   0             -0.042258263   -0.042258263   -0.002146703    77.64355               2   0.02575874     0.052748267  
       700   0             -0.097392701   -0.097392701   -0.0072183407   78.4439                3   0.038243892    0.050551371  
       750   0             -0.23410534    -0.23410534    -0.026754567    80.023935              5   0.062481307    0.049197916  
       800   0             -0.28901404    -0.28901404    -0.013852928    84.36777               3   0.035558603    0.048237681  
       850   0             -0.032949226   -0.032949226   -0.0016728455   77.443477              2   0.025825287    0.047609576  
       900   0             -0.40468168    -0.40468168    -0.047384566    80.618124              8   0.099233269    0.048298742  
       950   0             -0.63342033    -0.63342033    -0.064184336    73.758255              6   0.081346827    0.050897089  
      1000   0             -0.37767535    -0.37767535     0.042376401    78.745701              5   0.06349553     0.052135346  
      1050   0             -0.14152534    -0.14152534    -0.0058913921   88.114508              2   0.022697738    0.051330402  
      1100   0             -0.36054775    -0.36054775    -0.023789488    80.678882              4   0.049579269    0.050200554  
      1150   0             -0.042700165   -0.042700165   -0.0020116018   83.013197              2   0.024092555    0.049264141  
      1200   0             -0.10231383    -0.10231383    -0.0047775809   80.76402               2   0.024763502    0.04843056   
      1250   0             -0.51516624    -0.51516624    -0.021973381    71.968947              5   0.069474409    0.047770404  
      1300   0             -0.032909392   -0.032909392   -0.00230341     84.853518              3   0.035355046    0.047023765  
      1350   0             -0.15151934    -0.15151934    -0.01066675     79.205014              3   0.03787639     0.046545254  
      1400   0             -0.53082269    -0.53082269    -0.043578805    70.816071              4   0.056484354    0.043962994  
      1450   0             -0.31753398    -0.31753398    -0.010693248    76.67125               3   0.039128095    0.044105327  
      1500   0             -0.27508395    -0.27508395    -0.0041233522   77.927199              4   0.05132996     0.044319292  
      1550   0             -0.0092429284  -0.0092429284  -0.00051504716  71.448317              2   0.027992262    0.043680063  
      1600   0             -0.017802492   -0.017802492   -0.00097356657  72.480477              2   0.027593637    0.042745654  
      1650   0             -0.40991654    -0.40991654    -0.011730836    83.299715              2   0.024009686    0.042780487  
      1700   0             -0.61758124    -0.61758124    -0.058163753    87.923456              7   0.079614705    0.043710832  
      1750   0             -0.5493775     -0.5493775     -0.0040517131   82.881436              6   0.072392568    0.045089698  
      1800   0             -0.7777134     -0.7777134     -0.033374837    71.245041              6   0.084216387    0.047621429  
      1850   0             -0.31090564    -0.31090564    -0.024166752    72.733068              4   0.054995618    0.048840317  
      1900   0             -0.042552295   -0.042552295   -0.0031413299   80.32177               3   0.037349774    0.047777299  
      1950   0             -0.16242987    -0.16242987    -0.019187516    81.088641              5   0.061660918    0.045904894  
      2000   0             -0.54411245    -0.54411245    -0.046612711    81.800597              6   0.073349098    0.044832927  
      2050   0              0              0              0              86.190387              2   0.023204444    0.045135106  
      2100   0             -0.11321456    -0.11321456    -0.0075507408   86.583233              3   0.034648741    0.045415861  
      2150   0             -0.028630577   -0.028630577   -0.0014823329   76.119337              2   0.026274532    0.045610664  
      2200   0             -0.071129147   -0.071129147   -0.0033043953   82.800932              2   0.024154317    0.045539531  
      2250   0             -0.11658632    -0.11658632    -0.0097287699   91.375601              4   0.043775362    0.045346373  
      2300   0             -0.42023105    -0.42023105    -0.046596264    95.858196              7   0.073024533    0.046616175  
      2350   0             -0.32128328    -0.32128328    -0.02583119     89.682453              5   0.055752266    0.046771556  
      2400   0             -0.014105994   -0.014105994   -0.00065507071  85.517948              2   0.023386904    0.046461924  
      2450   0             -0.09671965    -0.09671965    -0.0080786862   89.574652              4   0.04465549     0.045795141  
      2500   0             -0.39999015    -0.39999015     0.1022129      96.323587              5   0.051908366    0.046213284  
      2550   0             -0.65239518    -0.65239518     0.0039995108   90.748495              6   0.066116799    0.047780129  
      2600   0             -0.35202576    -0.35202576     0.034015771    99.427669              5   0.050287813    0.049003162  
      2650   0             -0.43903045    -0.43903045    -0.0034500392   99.582092              6   0.060251797    0.050807303  
      2700   0             -0.31857468    -0.31857468    -0.0036458683   102.95066              4   0.038853562    0.050556117  
      2750   0             -0.61381886    -0.61381886    -0.026494607    88.823798              4   0.045032977    0.050140622  
      2800   0             -0.38493466    -0.38493466    -0.025380453    98.117745              5   0.050959181    0.047987948  
      2850   0             -0.19421791    -0.19421791     0.031209137    99.057324              7   0.070666153    0.047444779  
      2900   0             -0.54834621    -0.54834621    -0.046975395    98.845071              8   0.080934739    0.049212244  
      2950   0             -0.27808396    -0.27808396    -0.029814546    103.58886              7   0.067574833    0.050751636  
      3000   0             -0.59062364    -0.59062364    -0.019493038    109.72395              9   0.082024024    0.051820357  
      3050   0             -0.83091942    -0.83091942    -0.068953977    108.36803             10   0.09227814     0.053952366  
      3100   0             -0.49821052    -0.49821052    -0.014484156    111.69846              9   0.080574075    0.056809142  
      3150   0             -0.86502573    -0.86502573    -0.048587831    108.48783             10   0.092176237    0.059217161  
      3200   0             -0.67252168    -0.67252168    -0.029725672    108.38079             12   0.11072072     0.062574055  
      3250   0             -0.91664446    -0.91664446    -0.026436655    111.03093             12   0.108078       0.066196451  
      3300   0             -1.0840102     -1.0840102      0.059351232    109.52428             12   0.10956475     0.068008937  
      3350   0             -0.35793781    -0.35793781     0.10847103     108.00614             11   0.10184606     0.070291257  
      3400   0             -0.96381993    -0.96381993    -0.07320274     113.88019             14   0.12293622     0.074726214  
      3450   0             -0.69391116    -0.69391116    -0.056579241    108.08028             13   0.12028097     0.078983984  
      3500   0             -0.61698258    -0.61698258    -0.075733145    101.84776              8   0.07854861     0.081341138  
      3550   0             -0.37753048    -0.37753048    -0.043524817    107.59425              9   0.083647595    0.082293331  
      3600   0             -0.60251786    -0.60251786    -0.057255537    104.88278              7   0.066741176    0.083239636  
      3650   0             -0.83781812    -0.83781812    -0.033391108    103.53057              9   0.086930842    0.083003361  
      3700   0             -0.46130477    -0.46130477     0.051103173    103.05256             11   0.10674165     0.085420685  
      3750   0             -0.75901735    -0.75901735    -0.088021086    100.52333             11   0.10942733     0.087876991  
      3800   0             -0.57776638    -0.57776638    -0.08449187     90.248716              9   0.09972441     0.090434587  
      3850   0             -0.75424494    -0.75424494    -0.025986009    91.358117              8   0.087567479    0.091769844  
      3900   0             -0.21687294    -0.21687294    -0.013960456    87.55171               4   0.045687286    0.09077891   
      3950   0             -0.13516283    -0.13516283    -0.011322903    85.709985              4   0.046669008    0.08996467   
      4000   0             -0.62531094    -0.62531094     0.0099159933   95.003618              6   0.06315549     0.089274356  
      4050   0             -0.057058412   -0.057058412   -0.0048947841   90.837837              4   0.044034514    0.08748598   
      4100   0             -0.06481005    -0.06481005    -0.0026866203   93.145474              2   0.021471789    0.084346033  
      4150   0             -0.020346248   -0.020346248   -0.00098306745  81.926997              2   0.024411977    0.081719705  
      4200   0             -0.36480194    -0.36480194     0.025141214    92.484975              5   0.054062836    0.078280575  
      4250   0             -0.47802593    -0.47802593    -0.0089885768   94.747341              5   0.052771929    0.075316973  
      4300   0             -0.56429044    -0.56429044    -0.026836902    94.173067              5   0.053093736    0.0731028    
      4350   0             -0.2865633     -0.2865633     -0.035528734    102.25293              7   0.068457697    0.070397957  
      4400   0             -0.52753223    -0.52753223    -0.048353698    100.74276              7   0.0694839      0.067932206  
      4450   0             -0.6096204     -0.6096204     -0.06037414     100.21405              9   0.089807762    0.06607672   
      4500   0             -0.51584076    -0.51584076    -0.016871247    96.380903              7   0.072628496    0.06509822   
      4550   0             -0.56647063    -0.56647063    -0.032142951    90.970138              4   0.043970473    0.064471232  
      4600   0             -0.46125117    -0.46125117     0.10576561     89.39447               8   0.089490994    0.064470344  
      4650   0             -0.32675045    -0.32675045    -0.018370586    93.59387               3   0.032053381    0.064440828  
      4700   0             -0.042775794   -0.042775794   -0.0036405484   92.708048              4   0.0431462      0.061909988  
      4750   0             -0.65856673    -0.65856673    -0.044114853    88.906013              7   0.078734832    0.059499159  
      4800   0             -0.017233754   -0.017233754   -0.00079549379  85.897023              2   0.023283694    0.05718448   
      4850   0             -0.2373416     -0.2373416      0.016902267    92.174055              4   0.043396159    0.054587545  
      4900   0             -0.45783671    -0.45783671    -0.02207291     93.662619              3   0.032029854    0.053738484  
      4950   0             -0.06665516    -0.06665516    -0.0055670778   93.919023              4   0.042589881    0.052354188  
      5000   0             -0.28648681    -0.28648681    -0.012194941    94.705378              7   0.073913437    0.051834126  
      5050   0             -0.12104142    -0.12104142    -0.0079489058   86.785316              3   0.03456806     0.051359768  
      5100   0             -0.45468006    -0.45468006    -0.028443808    89.412413              6   0.067104776    0.051654983  
      5150   0             -0.034197817   -0.034197817   -0.0032067711   83.839085              4   0.047710444    0.052891462  
      5200   0             -0.54587963    -0.54587963    -0.0028098068   82.783769              4   0.048318651    0.05431679   
      5250   0             -0.19164532    -0.19164532    -0.012933464    83.780725              3   0.035807759    0.053784659  
      5300   0             -0.21577067    -0.21577067    -0.011764069    87.691561              3   0.034210818    0.052492994  
      5350   0             -0.013541756   -0.013541756   -0.00065484496  82.14954               2   0.024345846    0.05125906   
      5400   0             -0.088322561   -0.088322561   -0.0042392895   79.290802              2   0.025223607    0.049116583  
      5450   0             -0.26356812    -0.26356812    -0.020246666    78.326181              4   0.051068492    0.047548372  
      5500   0             -0.089895676   -0.089895676   -0.006553376    78.220734              3   0.038353003    0.0449969    
      5550   0             -0.015179715   -0.015179715   -0.0007802195   77.222988              2   0.025899024    0.042976104  
      5600   0              0              0              0              88.128615              2   0.022694104    0.04064081   
      5650   0             -0.47716497    -0.47716497     0.025281994    95.58698               5   0.052308379    0.039861285  
      5700   0             -0.013170445   -0.013170445   -0.00059182981  88.421049              2   0.022619048    0.040123058  
      5750   0             -0.41942671    -0.41942671     0.0064030765   87.732477              4   0.04559315     0.038868311  
      5800   0             -0.22015471    -0.22015471    -0.016749644    91.096591              4   0.043909437    0.038513436  
      5850   0             -0.1566027     -0.1566027     -0.010601678    78.286426              3   0.03832082     0.039109899  
      5900   0             -0.89299452    -0.89299452    -0.015169929    90.527086              6   0.066278506    0.040172544  
      5950   0             -0.11867078    -0.11867078    -0.0094617554   92.261354              4   0.043355098    0.041213927  
      6000   0             -0.29837126    -0.29837126    -0.015190275    99.437698              6   0.060339289    0.04123185   
      6050   0             -0.51425576    -0.51425576    -0.033800517    98.636606              7   0.070967568    0.042698173  
      6100   0             -0.08784348    -0.08784348    -0.0075983563   90.068887              4   0.044410452    0.04401624   
      6150   0             -0.25139085    -0.25139085    -0.019245869    94.502437              5   0.052908689    0.042992119  
      6200   0             -0.01579488    -0.01579488    -0.00099533539  94.057956              3   0.031895229    0.042023115  
      6250   0             -0.38892816    -0.38892816    -0.037418005    89.530022              6   0.067016626    0.042598016  
      6300   0             -0.34271865    -0.34271865    -0.0052089081   84.849397              3   0.035356763    0.042999702  
      6350   0             -0.66066051    -0.66066051    -0.0058309939   93.842189              6   0.063937128    0.044998599  
      6400   0             -0.6324033     -0.6324033     -0.01496095     86.465411              7   0.080957228    0.046837846  
      6450   0             -0.16397114    -0.16397114    -0.023704118    92.725667              7   0.075491503    0.047886036  
      6500   0             -0.176743      -0.176743       0.045737261    88.153381              6   0.068063186    0.049859756  
      6550   0             -0.4821206     -0.4821206     -0.046307712    91.037524              8   0.087875852    0.052311551  
      6600   0             -0.2438488     -0.2438488     -0.028646705    91.749698              6   0.065395311    0.055256127  
      6650   0             -0.39102977    -0.39102977    -0.021763786    99.272094              6   0.060439946    0.055705605  
      6700   0             -0.50068799    -0.50068799    -0.020647014    97.200297              7   0.072016241    0.056493674  
      6750   0             -0.16753922    -0.16753922    -0.011234981    102.66541              5   0.048701896    0.0579152    
      6800   0             -0.52010336    -0.52010336    -0.060280929    99.804056              7   0.07013743     0.058901164  
      6850   0             -0.4046804     -0.4046804     -0.032104222    100.9081               5   0.049550037    0.059364037  
      6900   0             -0.53961316    -0.53961316     0.0018090641   98.810104              4   0.04048169     0.059244163  
      6950   0             -0.30155749    -0.30155749    -0.0097179573   95.947362              2   0.020844763    0.058017806  
      7000   0             -0.046963603   -0.046963603   -0.0030731053   90.474444              3   0.033158535    0.057034146  
      7050   0             -0.057314104   -0.057314104   -0.0024565943   90.483283              2   0.022103531    0.054695319  
      7100   0             -0.15989236    -0.15989236    -0.010246304    89.090697              3   0.033673549    0.052751677  
      7150   0             -0.029394524   -0.029394524   -0.0019754454   88.082928              3   0.034058813    0.052850174  
      7200   0             -0.37405933    -0.37405933    -0.018046849    90.268016              3   0.033234363    0.052551805  
      7250   0             -0.035614872   -0.035614872   -0.0023567863   89.064955              3   0.033683282    0.0519569    
      7300   0              0              0              0              88.531841              2   0.022590742    0.051489328  
      7350   0             -0.13670102    -0.13670102    -0.010739784    97.220442              4   0.041143611    0.049401391  
      7400   0             -0.46436204    -0.46436204    -0.024230494    94.382647              4   0.042380672    0.048150908  
      7450   0             -0.016561993   -0.016561993   -0.0007422743   88.498411              2   0.022599276    0.046166749  
      7500   0             -0.021353357   -0.021353357   -0.00096380836  87.653823              2   0.022817031    0.044478167  
      7550   0             -0.30582425    -0.30582425    -0.027427882    91.468647              5   0.054663539    0.042474364  
      7600   0             -0.26200153    -0.26200153    -0.013760814    97.660375              5   0.051197837    0.040695636  
      7650   0             -0.31406084    -0.31406084    -0.035316583    95.448621              6   0.062861044    0.04064353   
      7700   0             -0.07346062    -0.07346062    -0.0077959534   92.244576              5   0.054203729    0.039591627  
      7750   0             -0.30342362    -0.30342362    -0.008661769    96.894339              3   0.030961561    0.03838585   
      7800   0              0              0              0              99.018046              2   0.020198338    0.036364199  
      7850   0             -0.21451989    -0.21451989    -0.014580675    98.290929              4   0.040695515    0.035314054  
      7900   0             -0.55266087    -0.55266087    -0.031860589    94.437693              5   0.052944961    0.034582907  
      7950   0             -0.67911858    -0.67911858    -0.045111223    96.857269              6   0.061946822    0.035844089  
      8000   0             -0.3320636     -0.3320636     -0.027995355    106.79595              6   0.056181904    0.037155864  
      8050   0             -0.59405685    -0.59405685    -0.065710917    105.35809              8   0.075931523    0.039460092  
      8100   0             -0.6205096     -0.6205096     -0.047034992    104.50302              7   0.066983711    0.041634985  
      8150   0             -0.15207311    -0.15207311     0.11550307     101.91652              8   0.078495616    0.043606011  
      8200   0             -0.37513234    -0.37513234     0.019041301    103.42567              9   0.087019012    0.046184181  
      8250   0             -0.49820623    -0.49820623    -0.036789862    106.65769              8   0.075006313    0.048109202  
      8300   0             -0.32973435    -0.32973435    -0.041243857    108.46588              8   0.073755912    0.050204686  
      8350   0             -0.74692475    -0.74692475    -0.026322535    111.14796              9   0.080973146    0.052769359  
      8400   0             -0.50819592    -0.50819592    -0.063602177    112.95627              9   0.079676854    0.054868063  
      8450   0             -0.59465629    -0.59465629    -0.074392951    106.27411             10   0.094096291    0.057661622  
      8500   0             -0.27087242    -0.27087242    -0.035058873    111.00568              9   0.081076929    0.060191672  
      8550   0             -0.45137396    -0.45137396    -0.0040078674   104.36873              8   0.076651312    0.061814692  
      8600   0             -0.61088578    -0.61088578    -0.066325269    101.54823              8   0.078780301    0.063110668  
      8650   0             -0.35215306    -0.35215306    -0.032219587    102.66166              6   0.058444411    0.064447025  
      8700   0             -0.48400717    -0.48400717     0.0084710591   102.98651              5   0.048550046    0.065146278  
      8750   0             -0.013703778   -0.013703778   -0.00054453199  99.965274              2   0.020006948    0.06519671   
      8800   0             -0.24087393    -0.24087393    -0.010003307    106.51019              3   0.028166318    0.065458917  
      8850   0             -0.35599163    -0.35599163    -0.020620983    109.97957              4   0.036370391    0.065824111  
      8900   0             -0.30914366    -0.30914366    -0.0077327968   106.96957              5   0.046742264    0.06600034   
      8950   0             -0.23824064    -0.23824064    -0.021589535    109.61415              6   0.054737459    0.06583894   
      9000   0             -0.4773403     -0.4773403     -0.035360015    106.65755              7   0.065630612    0.066356879  
      9050   0             -0.49311013    -0.49311013     0.040508355    112.28842              6   0.053433828    0.0658658    
      9100   0             -0.27823527    -0.27823527    -0.013144274    113.44635              6   0.052888436    0.064983126  
      9150   0             -1.3079601     -1.3079601     -0.031942782    106.94987              6   0.056101048    0.064004187  
      9200   0              0              0              0              104.08824              2   0.019214466    0.061885508  
      9250   0              0              0              0              99.351547              2   0.020130537    0.059597628  
      9300   0             -1.1382797     -1.1382797     -0.022301187    109.01352              4   0.036692697    0.057363511  
      9350   0             -0.085576876   -0.085576876   -0.007495772    108.95885              5   0.045888882    0.055512871  
      9400   0             -0.2076614     -0.2076614     -0.00084380484  108.08942              6   0.055509598    0.053837077  
      9450   0             -0.23671304    -0.23671304    -0.016842289    110.33506              5   0.04531651     0.051809562  
      9500   0             -0.18394114    -0.18394114    -0.016952482    103.71327              5   0.04820984     0.049782366  
      9550   0             -0.38424614    -0.38424614    -0.028052211    103.19809              5   0.048450508    0.048552902  
      9600   0             -0.24983044    -0.24983044    -0.013025403    105.39001              4   0.037954261    0.046911175  
      9650   0             -0.39092033    -0.39092033     0.05475932     116.64956              6   0.051436115    0.045250829  
      9700   0             -0.20519421    -0.20519421    -0.023629291    105.24365              7   0.066512325    0.045213348  
      9750   0             -0.41321475    -0.41321475    -0.020596281    106.27141              8   0.075278948    0.046549643  
      9800   0             -0.33436304    -0.33436304    -0.038912167    100.91559              7   0.069364904    0.048575604  
      9850   0             -0.3260615     -0.3260615     -0.035297204    105.02279              8   0.076173944    0.04996857   
      9900   0             -0.36790344    -0.36790344    -0.043690783    108.5649               8   0.073688644    0.051279503  
      9950   0             -0.46475162    -0.46475162     0.02922467     105.73493              7   0.066203286    0.052156682  
     10000   0             -0.48340644    -0.48340644    -0.018315456    104.04484              6   0.057667442    0.052019206  
     10050   0             -0.62346282    -0.62346282    -0.060520236    109.38888              9   0.082275272    0.052567147  
     10100   0             -0.62973137    -0.62973137    -0.060955566    109.65391              8   0.072956813    0.054138649  
     10150   0             -0.51057661    -0.51057661    -0.076204197    105.96222             11   0.10381059     0.055812341  
     10200   0             -0.60447548    -0.60447548    -0.02663169     103.13712              9   0.087262467    0.058538101  
     10250   0             -0.21685168    -0.21685168     0.069078296    101.30886              7   0.069095635    0.061272941  
Loop time of 42.9284 on 1 procs for 10000 steps with 7 atoms

Performance: 100632.728 tau/day, 232.946 timesteps/s, 1.631 katom-step/s
99.8% CPU use with 1 MPI tasks x 1 OpenMP threads

MPI task timing breakdown:
Section |  min time  |  avg time  |  max time  |%varavg| %total
---------------------------------------------------------------
Pair    | 0.0062099  | 0.0062099  | 0.0062099  |   0.0 |  0.01
Neigh   | 0.020034   | 0.020034   | 0.020034   |   0.0 |  0.05
Comm    | 0.0090588  | 0.0090588  | 0.0090588  |   0.0 |  0.02
Output  | 0.0022811  | 0.0022811  | 0.0022811  |   0.0 |  0.01
Modify  | 42.878     | 42.878     | 42.878     |   0.0 | 99.88
Other   |            | 0.01263    |            |       |  0.03

Nlocal:              7 ave           7 max           7 min
Histogram: 1 0 0 0 0 0 0 0 0 0
Nghost:             61 ave          61 max          61 min
Histogram: 1 0 0 0 0 0 0 0 0 0
Neighs:             22 ave          22 max          22 min
Histogram: 1 0 0 0 0 0 0 0 0 0

Total # of neighbors = 22
Ave neighs/atom = 3.1428571
Neighbor list builds = 428241
Dangerous builds = 0
Total wall time: 0:00:42
