LAMMPS (10 Sep 2025 - Development - patch_10Sep2025-573-g330f5155a4-modified)
Processor partition = 0
OMP_NUM_THREADS environment is not set. Defaulting to 1 thread.
  using 1 OpenMP thread(s) per MPI task
# 3d Lennard-Jones melt to vapor-liquid mixture GEMC
# mpirun -np 5 ./lmp -in in.gemc.lj -p 1 4

variable        temp index 1.0
variable        ntranslate index 10
variable        nexchange index 10
variable        nvolume index 10
variable        displace index 0.5
#variable        max_volume index 100.0
variable        max_dlogvolratio index 0.1
variable        nsteps index 10000

units           lj
atom_style      atomic

# initialize gas state in partition 1

partition       yes 1 lattice fcc 0.05
lattice fcc 0.05
Lattice spacing in x,y,z = 4.3088694 4.3088694 4.3088694
partition       yes 1 region box block 0 1 0 1 0 1
region box block 0 1 0 1 0 1

# initialize liquid state in partition 2

partition       yes 2 lattice fcc 0.6
partition       yes 2 region box block 0 3 0 3 0 3

create_box      1 box
Created orthogonal box = (0 0 0) to (4.3088694 4.3088694 4.3088694)
  1 by 1 by 1 MPI processor grid
create_atoms    1 box
Created 4 atoms
  using lattice units in orthogonal box = (0 0 0) to (4.3088694 4.3088694 4.3088694)
  create_atoms CPU = 0.000 seconds
mass            1 1.0

velocity        all create 3.0 87287 loop geom

pair_style      lj/cut 2.5
pair_coeff      1 1 1.0 1.0 2.5

neighbor        0.3 bin
neigh_modify    every 1 delay 5 check yes

fix             1 all nve

thermo          50
thermo_style    custom step temp pe etotal press vol atoms density
run             250
Generated 0 of 0 mixed pair_coeff terms from geometric mixing rule
Neighbor list info ...
  update: every = 1 steps, delay = 5 steps, check = yes
  max neighbors/atom: 2000, page size: 100000
  master list distance cutoff = 2.8
  ghost atom cutoff = 2.8
  binsize = 1.4, bins = 4 4 4
  1 neighbor lists, perpetual/occasional/extra = 1 0 0
  (1) pair lj/cut, perpetual
      attributes: half, newton on
      pair build: half/bin/atomonly/newton
      stencil: half/bin/3d
      bin: standard
Per MPI rank memory allocation (min/avg/max) = 3.059 | 3.059 | 3.059 Mbytes
   Step          Temp          PotEng         TotEng         Press          Volume        Atoms       Density    
         0   3              0              3.375          0.1125         80                     4   0.05         
        50   3.0165043     -0.026598173    3.3669691      0.11051182     80                     4   0.05         
       100   3.0488308     -0.071119653    3.358815       0.10745073     80                     4   0.05         
       150   3.1012973     -0.12610199     3.3628575      0.10509185     80                     4   0.05         
       200   3.2255871     -0.27398268     3.3548028      0.14486233     80                     4   0.05         
       250   3.1160493     -0.15079937     3.354756       0.10385735     80                     4   0.05         
Loop time of 0.00032043 on 1 procs for 250 steps with 4 atoms

Performance: 337047092.969 tau/day, 780201.604 timesteps/s, 3.121 Matom-step/s
98.6% CPU use with 1 MPI tasks x 1 OpenMP threads

MPI task timing breakdown:
Section |  min time  |  avg time  |  max time  |%varavg| %total
---------------------------------------------------------------
Pair    | 3.8233e-05 | 3.8233e-05 | 3.8233e-05 |   0.0 | 11.93
Neigh   | 5.7691e-05 | 5.7691e-05 | 5.7691e-05 |   0.0 | 18.00
Comm    | 0.00010401 | 0.00010401 | 0.00010401 |   0.0 | 32.46
Output  | 1.5306e-05 | 1.5306e-05 | 1.5306e-05 |   0.0 |  4.78
Modify  | 4.5666e-05 | 4.5666e-05 | 4.5666e-05 |   0.0 | 14.25
Other   |            | 5.952e-05  |            |       | 18.58

Nlocal:              4 ave           4 max           4 min
Histogram: 1 0 0 0 0 0 0 0 0 0
Nghost:             52 ave          52 max          52 min
Histogram: 1 0 0 0 0 0 0 0 0 0
Neighs:              7 ave           7 max           7 min
Histogram: 1 0 0 0 0 0 0 0 0 0

Total # of neighbors = 7
Ave neighs/atom = 1.75
Neighbor list builds = 31
Dangerous builds = 0
unfix           1

velocity        all create 0.0 87287 loop geom

#   args: nevery ntranslate nexchange nvolume box_temp displace max_volume seed
#fix              2 all gemc 1 ${ntranslate} ${nexchange} ${nvolume} ${temp} ${displace} ${max_volume} 29494
#   args: nevery ntranslate nexchange nvolume box_temp displace max_dlogvolratio seed
fix              2 all gemc 1 ${ntranslate} ${nexchange} ${nvolume} ${temp} ${displace} ${max_dlogvolratio} 29494
fix              2 all gemc 1 10 ${nexchange} ${nvolume} ${temp} ${displace} ${max_dlogvolratio} 29494
fix              2 all gemc 1 10 10 ${nvolume} ${temp} ${displace} ${max_dlogvolratio} 29494
fix              2 all gemc 1 10 10 10 ${temp} ${displace} ${max_dlogvolratio} 29494
fix              2 all gemc 1 10 10 10 1.0 ${displace} ${max_dlogvolratio} 29494
fix              2 all gemc 1 10 10 10 1.0 0.5 ${max_dlogvolratio} 29494
fix              2 all gemc 1 10 10 10 1.0 0.5 0.1 29494

variable        mydensity equal density
fix             3 all ave/time 1 50 50 v_mydensity ave window 20
thermo_style    custom step temp pe etotal press vol atoms density f_3

run             ${nsteps}
run             10000
WARNING: No fixes with time integration, atoms won't move
For more information see https://docs.lammps.org/err0028 (src/verlet.cpp:60)
Generated 0 of 0 mixed pair_coeff terms from geometric mixing rule
0 atoms in group FixGEMC:gemc_exclusion_group:2
Per MPI rank memory allocation (min/avg/max) = 3.059 | 3.059 | 3.059 Mbytes
   Step          Temp          PotEng         TotEng         Press          Volume        Atoms       Density          f_3      
       250   0             -0.15079937    -0.15079937    -0.012994499    80                     4   0.05           0            
       300   0             -0.36441162    -0.36441162    -0.024364946    99.332641              4   0.040268737    0.039470589  
       350   0             -0.46402132    -0.46402132     0.00969875     140.30924              2   0.014254229    0.036110492  
       400   0             -0.018919824   -0.018919824   -0.00075984081  147.21599              3   0.020378221    0.033855064  
       450   0             -0.035135909   -0.035135909   -0.0018535194   147.45463              4   0.027126989    0.030258694  
       500   0             -0.43617296    -0.43617296    -0.025454306    155.18429              7   0.045107659    0.03021233   
       550   0             -0.17065309    -0.17065309     0.017034608    159.27172              7   0.043950051    0.03271384   
       600   0             -0.39978996    -0.39978996     0.024524615    159.36223              5   0.031375062    0.031825699  
       650   0              0              0              0              159.28745              2   0.012555917    0.030529553  
       700   0             -0.029187111   -0.029187111   -0.0010866217   159.30582              3   0.018831704    0.029024035  
       750   0             -0.53861191    -0.53861191    -0.0031271961   159.19462              7   0.043971335    0.028546196  
       800   0             -0.40333453    -0.40333453    -0.0094624638   159.34232              5   0.031378984    0.028460905  
       850   0             -0.083795899   -0.083795899   -0.0050391232   159.67369              5   0.031313862    0.027813629  
       900   0             -0.3239096     -0.3239096      0.0095247953   159.90888              5   0.031267807    0.028571255  
       950   0             -0.037520198   -0.037520198   -0.0018271258   159.8378               4   0.025025369    0.028621678  
      1000   0             -0.69693078    -0.69693078    -0.016697953    159.88497              4   0.025017986    0.028190226  
      1050   0             -0.086966024   -0.086966024   -0.0051616748   159.75992              5   0.031296962    0.027921889  
      1100   0             -0.2633105     -0.2633105     -0.032207609    159.86283             11   0.068808992    0.029252584  
      1150   0             -0.28578117    -0.28578117    -0.003379358    159.92958              8   0.050022016    0.031082594  
      1200   0             -0.31756204    -0.31756204    -0.014973071    159.97655              8   0.050007329    0.031763093  
      1250   0             -0.20498411    -0.20498411    -0.0111227      159.93912              5   0.031261895    0.031981766  
      1300   0             -0.055902798   -0.055902798   -0.0032453605   159.90314              5   0.03126893     0.031953199  
      1350   0             -0.25890601    -0.25890601    -0.0088903484   159.94592              6   0.037512678    0.032172573  
      1400   0             -0.59260999    -0.59260999    -0.042190738    159.98567             11   0.068756159    0.033324633  
      1450   0             -0.53775097    -0.53775097    -0.012477364    159.99391              7   0.043751664    0.034701312  
      1500   0             -0.18087654    -0.18087654    -0.01154212     159.99399              6   0.03750141     0.03525627   
      1550   0             -0.93605592    -0.93605592    -0.037295442    159.96857              6   0.037507368    0.035139181  
      1600   0             -0.15746306    -0.15746306     0.065316967    159.98203              9   0.056256318    0.035852105  
      1650   0             -0.37678753    -0.37678753    -0.0016923674   159.9801              10   0.062507774    0.037911304  
      1700   0             -0.92434908    -0.92434908     0.0098220901   159.99465             11   0.0687523      0.040393766  
      1750   0             -0.97942031    -0.97942031    -0.082680368    159.99832             14   0.08750092     0.043194078  
      1800   0             -0.44679169    -0.44679169    -0.044363266    159.99936             12   0.075000301    0.045838704  
      1850   0             -0.59437594    -0.59437594    -0.043708232    159.99955             11   0.068750192    0.048097787  
      1900   0             -0.83644407    -0.83644407    -0.058006579    159.99967             14   0.087500179    0.050033409  
      1950   0             -0.29450984    -0.29450984    -0.02155724     159.99932             13   0.081250347    0.052675808  
      2000   0             -0.47897391    -0.47897391     0.026185894    159.99802             13   0.081251005    0.055899589  
      2050   0             -0.41324512    -0.41324512    -0.041610147    159.99881             11   0.068750512    0.058004784  
      2100   0             -0.077985203   -0.077985203   -0.004333554    159.9979               5   0.031250411    0.058183884  
      2150   0             -0.1920001     -0.1920001     -0.0091126825   159.98908              5   0.031252134    0.056518075  
      2200   0             -0.57577335    -0.57577335     0.015950754    159.95511              7   0.043762279    0.056530225  
      2250   0             -0.39123432    -0.39123432     0.0069139634   159.61965              6   0.037589358    0.056670103  
      2300   0             -0.22793799    -0.22793799    -0.021053451    159.6624               8   0.050105724    0.057242795  
      2350   0             -0.40771464    -0.40771464    -0.01350656     159.8368               7   0.043794672    0.057977474  
      2400   0             -0.02424882    -0.02424882    -0.0009008516   159.77017              3   0.018776972    0.057411711  
      2450   0             -0.37025651    -0.37025651     0.0062444098   159.84971             10   0.062558763    0.056757447  
      2500   0             -0.6791109     -0.6791109     -0.034786408    159.62252              8   0.050118242    0.05728041   
      2550   0             -0.86159563    -0.86159563    -0.0405653      158.48949             11   0.069405234    0.058231676  
      2600   0             -0.17327995    -0.17327995    -0.0076914172   159.31175              7   0.043939005    0.058942965  
      2650   0             -0.63540687    -0.63540687    -0.0079271796   159.28785              6   0.037667656    0.058215643  
      2700   0             -0.59568687    -0.59568687    -0.025376365    159.36497              9   0.056474144    0.057075226  
      2750   0             -0.30043766    -0.30043766    -0.025564629    158.78068              8   0.050383964    0.055454137  
      2800   0             -0.1560078     -0.1560078     -0.015189456    158.22293              8   0.050561573    0.053772174  
      2850   0             -0.39322483    -0.39322483    -0.025377768    156.38731              7   0.044760666    0.052861816  
      2900   0             -0.10922562    -0.10922562    -0.0076707275   154.68174              6   0.038789323    0.051467373  
      2950   0             -0.40143601    -0.40143601    -0.014741337    154.22985              6   0.038902975    0.049462505  
      3000   0             -0.37958435    -0.37958435    -0.042939359    105.26078              8   0.076001717    0.047035827  
      3050   0             -0.27809001    -0.27809001    -0.015746092    144.95841              6   0.041391184    0.046004553  
      3100   0              0              0              0              129.21345              2   0.015478265    0.044990504  
      3150   0             -0.054119968   -0.054119968   -0.0049778468   149.41019              7   0.046850887    0.044621325  
      3200   0             -0.17864618    -0.17864618    -0.011401138    148.09812              7   0.04726596     0.044414527  
      3250   0             -0.24769787    -0.24769787    -0.013898731    154.25879              6   0.038895677    0.044426817  
      3300   0             -0.65934645    -0.65934645    -0.006436844    151.80183              6   0.039525215    0.044075119  
      3350   0             -0.15107832    -0.15107832    -0.0072083587   154.45402              5   0.032372094    0.043663924  
      3400   0             -0.11395253    -0.11395253    -0.0070898902   154.81269              5   0.032297094    0.042896337  
      3450   0             -0.34543382    -0.34543382    -0.0086590395   130.63392              6   0.04592988     0.043063342  
      3500   0             -0.34765942    -0.34765942     0.050295263    137.00785              7   0.051091964    0.042847324  
      3550   0             -0.0013855838  -0.0013855838   0.074278538    146.92192              7   0.047644355    0.042051096  
      3600   0             -0.15405432    -0.15405432    -0.0097813711   122.26169              5   0.040895884    0.041126024  
      3650   0             -0.34784446    -0.34784446    -0.051963448    134.58866             11   0.081730514    0.041965089  
      3700   0             -0.084806898   -0.084806898   -0.0054800815   144.8441               5   0.034519873    0.042377208  
      3750   0             -0.13892484    -0.13892484     0.057358154    104.49448              4   0.038279533    0.041659882  
      3800   0             -0.26772034    -0.26772034    -0.012916302    120.47293              4   0.033202481    0.041538117  
      3850   0             -1.0107885     -1.0107885     -0.1069482      95.957484             10   0.10421282     0.041757423  
      3900   0             -0.17624182    -0.17624182    -0.012863794    108.11748              5   0.046245993    0.042324948  
      3950   0             -0.55633681    -0.55633681    -0.026611218    119.13334              5   0.041969781    0.042471451  
      4000   0             -0.34546663    -0.34546663    -0.013289997    137.52616              5   0.03635672     0.042964499  
      4050   0             -0.39177344    -0.39177344    -0.017222791    156.26712              6   0.038395794    0.042739417  
      4100   0             -0.038339957   -0.038339957   -0.0018810979   156.27118              4   0.02559653     0.0425011    
      4150   0             -0.10477816    -0.10477816    -0.0063218629   154.69393              5   0.032321889    0.042558746  
      4200   0             -0.49177232    -0.49177232    -0.011664449    154.92077              4   0.025819649    0.041962982  
      4250   0             -0.19087865    -0.19087865    -0.015218529    157.30897              7   0.044498417    0.042122642  
      4300   0             -0.30189742    -0.30189742     0.018497548    155.40052              8   0.051479881    0.041941093  
      4350   0             -0.20343118    -0.20343118     0.015872289    155.71074              4   0.025688658    0.041645501  
      4400   0             -0.10059364    -0.10059364    -0.0036959032   158.36638              3   0.018943415    0.041990773  
      4450   0              0              0              0              158.46357              1   0.0063105989   0.040884484  
      4500   0             -0.016918733   -0.016918733   -0.00064222857  156.00449              3   0.019230216    0.039532694  
      4550   0             -0.061995952   -0.061995952   -0.0025195927   143.77948              3   0.020865286    0.037931386  
      4600   0             -0.10013375    -0.10013375    -0.0062815204   149.64256              5   0.033412955    0.037566785  
      4650   0             -0.37769375    -0.37769375    -0.017978115    135.32399              4   0.029558691    0.036308836  
      4700   0              0              0              0              133.32947              1   0.0075002175   0.034771426  
      4750   0              0.11172814     0.11172814     0.083773155    152.47639              4   0.026233569    0.033838069  
      4800   0             -0.034498111   -0.034498111   -0.0021618162   155.93058              5   0.03206555     0.033031164  
      4850   0             -0.22205399    -0.22205399    -0.015617608    138.36938              7   0.050589226    0.032293656  
      4900   0             -0.019446905   -0.019446905   -0.0008363715   137.41272              3   0.02183204     0.031232467  
      4950   0             -0.014848929   -0.014848929   -0.00048730631  120.96716              2   0.016533412    0.029823944  
      5000   0              0              0              0              150.64034              1   0.0066383283   0.028178066  
      5050   0             -0.33032346    -0.33032346    -0.0021676773   158.68541              3   0.01890533     0.027018642  
      5100   0             -0.047250803   -0.047250803   -0.0029078569   158.39339              5   0.031566974    0.026734981  
      5150   0             -0.48606908    -0.48606908     0.051154074    158.12974              4   0.025295684    0.026512271  
      5200   0             -0.49795529    -0.49795529    -0.027273082    157.53098              6   0.038087747    0.027158576  
      5250   0             -0.19003596    -0.19003596    -0.0063826834   156.60809              4   0.025541465    0.02631135   
      5300   0             -0.13367603    -0.13367603    -0.0069174755   157.24425              5   0.031797665    0.025361479  
      5350   0             -0.071994729   -0.071994729   -0.002546106    159.35057              3   0.018826415    0.025000691  
      5400   0             -0.040241562   -0.040241562   -0.0029716075   159.57706              6   0.03759939     0.024874548  
      5450   0             -0.15835249    -0.15835249    -0.013601767    159.88977              8   0.050034472    0.026108407  
      5500   0             -0.29209541    -0.29209541    -0.012183319    159.89985              5   0.031269573    0.026679526  
      5550   0             -0.24767319    -0.24767319     0.021290896    159.60397              3   0.018796524    0.027089042  
      5600   0             -0.31017777    -0.31017777    -0.013700065    159.62299              5   0.03132381     0.026951255  
      5650   0             -0.29225863    -0.29225863    -0.0029611537   158.94466              7   0.044040485    0.026569834  
      5700   0             -0.23371668    -0.23371668    -0.013079285    159.85458              6   0.037534114    0.026863646  
      5750   0             -0.66655249    -0.66655249     0.024548467    159.95663              6   0.037510168    0.028011655  
      5800   0             -0.1973517     -0.1973517     -0.0098238613   159.56042              7   0.043870529    0.028611907  
      5850   0             -0.13876641    -0.13876641     0.042059171    159.78852              6   0.03754963     0.02864284   
      5900   0             -0.16480526    -0.16480526    -0.0076268594   158.20848              5   0.031603869    0.028540688  
      5950   0             -0.2701125     -0.2701125     -0.020657457    157.58374              7   0.044420826    0.029555717  
      6000   0             -0.021476371   -0.021476371   -0.00081251072  157.09293              3   0.019096976    0.03068972   
      6050   0             -0.10632594    -0.10632594    -0.0060921467   159.08187              5   0.031430357    0.031421281  
      6100   0             -0.27781152    -0.27781152    -0.014688164    159.62681              5   0.03132306     0.031944369  
      6150   0             -0.22654858    -0.22654858    -0.012442369    159.67757              6   0.037575722    0.032708641  
      6200   0             -0.25080917    -0.25080917     0.03245894     158.3279               4   0.025264025    0.032031379  
      6250   0              0              0              0              154.37465              2   0.012955495    0.031792384  
      6300   0             -0.18010282    -0.18010282    -0.0044220051   144.80047              2   0.01381211     0.0316104    
      6350   0             -0.028657713   -0.028657713   -0.0014776695   153.26291              4   0.026098943    0.031170716  
      6400   0             -0.47818488    -0.47818488    -0.0043848245   150.74562              2   0.013267383    0.030780406  
      6450   0             -0.43678201    -0.43678201    -0.019364243    142.4299               6   0.042125987    0.030491963  
      6500   0             -0.31926152    -0.31926152    -0.019616191    152.09991              7   0.046022382    0.030843916  
      6550   0             -0.44227887    -0.44227887    -0.03402255     137.10692              7   0.051055044    0.032017142  
      6600   0             -0.39695777    -0.39695777    -0.00077188192  131.96751              6   0.045465736    0.03372915   
      6650   0             -0.20233295    -0.20233295    -0.013718166    149.76954              6   0.04006155     0.034347737  
      6700   0             -0.23584308    -0.23584308    -0.00450754     150.36534              5   0.033252343    0.034596366  
      6750   0             -0.05293159    -0.05293159    -0.0035833598   144.11829              5   0.034693722    0.034332132  
      6800   0             -0.13120456    -0.13120456    -0.0089932396   157.4536               6   0.038106464    0.033958918  
      6850   0             -0.12314455    -0.12314455    -0.0072287868   158.93465              5   0.031459471    0.033802613  
      6900   0             -0.17164838    -0.17164838    -0.0064062712   158.65406              4   0.025212087    0.033187456  
      6950   0             -0.20353186    -0.20353186    -0.0072611229   156.31516              3   0.019191997    0.032899533  
      7000   0             -0.35082011    -0.35082011     0.0068228262   155.58827              5   0.032136098    0.03227953   
      7050   0             -0.33525619    -0.33525619    -0.01129142     157.41578              5   0.031763017    0.031847302  
      7100   0             -0.41899396    -0.41899396    -0.022058039    158.9398               7   0.044041831    0.032451815  
      7150   0             -0.35463773    -0.35463773    -0.015710371    158.10389              8   0.050599639    0.032997493  
      7200   0             -0.25407283    -0.25407283    -0.020476367    152.93863              8   0.052308563    0.03429872   
      7250   0             -0.39711734    -0.39711734    -0.044808838    134.20592              9   0.067061124    0.036213683  
      7300   0             -0.28415664    -0.28415664    -0.030260086    112.38206              8   0.071185737    0.03894974   
      7350   0             -1.0864243     -1.0864243     -0.19202039     49.149741              7   0.14242191     0.04388477   
      7400   0             -0.38344792    -0.38344792     0.093665454    80.025083              6   0.074976492    0.047308218  
      7450   0             -0.17721845    -0.17721845    -0.011363703    103.74122              4   0.038557481    0.048087852  
      7500   0             -0.1692635     -0.1692635     -0.012702284    101.96362              5   0.049037097    0.048031545  
      7550   0             -0.027093699   -0.027093699   -0.0019235001   138.91424              5   0.03599343     0.047451691  
      7600   0             -0.17208693    -0.17208693     0.048457795    151.18571              6   0.03968629     0.04615708   
      7650   0              0              0              0              147.89106              2   0.013523468    0.045268609  
      7700   0             -0.61045605    -0.61045605    -0.046162247    127.63062             10   0.078351104    0.045620085  
      7750   0             -0.21849938    -0.21849938    -0.022205609    144.18089              8   0.055485854    0.047405714  
      7800   0             -0.414642      -0.414642      -0.021572967    142.24092              6   0.042181955    0.048339952  
      7850   0             -0.059270067   -0.059270067   -0.0031111938   147.80556              4   0.027062581    0.048469713  
      7900   0             -0.5439144     -0.5439144     -0.040059       152.81501              8   0.052350879    0.049255898  
      7950   0             -0.24810724    -0.24810724    -0.015197079    145.83594             10   0.068570205    0.050759135  
      8000   0             -0.53046414    -0.53046414    -0.0038240579   156.47063             10   0.063909757    0.052592899  
      8050   0             -0.40117256    -0.40117256     0.062100438    158.50454             10   0.063089677    0.054455512  
      8100   0             -0.51485936    -0.51485936    -0.021020988    159.91907             14   0.087544282    0.056168949  
      8150   0             -0.44471857    -0.44471857    -0.050639988    159.57305             11   0.068933948    0.058180069  
      8200   0             -0.612748      -0.612748       0.048387412    159.65498              9   0.056371557    0.058838985  
      8250   0             -0.49562233    -0.49562233    -0.038824553    159.77338             11   0.068847512    0.059208529  
      8300   0             -0.68188143    -0.68188143     0.023049256    157.93261             11   0.069649959    0.059176423  
      8350   0             -0.24517104    -0.24517104    -0.020855804    159.28013              8   0.050225977    0.056470508  
      8400   0             -0.52002737    -0.52002737     0.011417931    157.64118             11   0.069778723    0.054660069  
      8450   0             -0.22970973    -0.22970973     0.013967455    157.3641               4   0.025418757    0.054548461  
      8500   0             -0.024889625   -0.024889625   -0.00092592461  159.75034              3   0.018779303    0.0537204    
      8550   0              0              0              0              159.95599              3   0.018755159    0.052782906  
      8600   0             -0.042543027   -0.042543027   -0.0026305134   159.96425              5   0.031256985    0.052062867  
      8650   0             -0.3337985     -0.3337985      0.01377162     159.99082              5   0.031251794    0.05250986   
      8700   0             -0.27896013    -0.27896013    -0.030742847    159.98384             10   0.062506312    0.052806684  
      8750   0             -1.0190141     -1.0190141     -0.031110322    159.99593              9   0.056251433    0.052302884  
      8800   0              0              0              0              159.99878              2   0.012500095    0.051170996  
      8850   0             -0.27830744    -0.27830744    -0.0084774249   159.99884              4   0.025000181    0.050501411  
      8900   0             -0.24239797    -0.24239797    -0.005293374    159.99963              4   0.025000059    0.049239384  
      8950   0             -0.31338312    -0.31338312     0.0076123906   159.99944              3   0.018750065    0.047482177  
      9000   0             -0.013421168   -0.013421168   -0.00033324849  159.99922              2   0.012500061    0.045045148  
      9050   0             -0.023967601   -0.023967601   -0.0011801911   159.99811              4   0.025000296    0.043373956  
      9100   0              0              0              0              159.98708              2   0.01250101     0.040412689  
      9150   0              0              0              0              159.98951              1   0.0062504099   0.036725816  
      9200   0             -0.019814491   -0.019814491   -0.00073168413  159.99477              3   0.018750613    0.03446147   
      9250   0             -0.15841886    -0.15841886    -0.0072897801   159.98725              6   0.03750299     0.033257167  
      9300   0             -0.50251785    -0.50251785    -0.0506724      159.99617             11   0.068751647    0.032594541  
      9350   0             -0.39713516    -0.39713516    -0.018788815    159.99261              8   0.050002311    0.032681217  
      9400   0             -0.63867563    -0.63867563    -0.021631608    159.98613             10   0.062505417    0.032528642  
      9450   0             -0.10690036    -0.10690036     0.045134626    159.9514               7   0.043763294    0.032771699  
      9500   0             -0.45239922    -0.45239922     0.0092273816   159.97966              8   0.050006356    0.034090736  
      9550   0             -0.42608363    -0.42608363    -0.0059417625   159.94103              9   0.056270739    0.036040883  
      9600   0             -0.7022831     -0.7022831      0.033906805    159.96751              9   0.056261423    0.037973188  
      9650   0             -0.46996453    -0.46996453    -0.030880121    159.94689              7   0.043764527    0.03838589   
      9700   0             -0.21732125    -0.21732125    -0.016525336    159.98525              8   0.05000461     0.038767343  
      9750   0             -0.33648818    -0.33648818    -0.014937243    159.99246              8   0.050002357    0.038011126  
      9800   0             -0.25364172    -0.25364172    -0.0029176206   159.98638              6   0.037503193    0.038936287  
      9850   0             -0.39031848    -0.39031848    -0.025439074    159.99598              8   0.050001256    0.039911412  
      9900   0             -0.19143641    -0.19143641    -0.0056691662   159.99464              3   0.018750628    0.040648948  
      9950   0             -0.066277682   -0.066277682   -0.003251141    159.99458              4   0.025000847    0.040611495  
     10000   0             -0.43927195    -0.43927195    -0.011860203    159.98174              6   0.037504279    0.041561679  
     10050   0             -0.73916864    -0.73916864     0.045300074    159.96102              9   0.056263708    0.042668862  
     10100   0              0              0              0              159.87942              3   0.018764141    0.043738369  
     10150   0             -0.010953047   -0.010953047   -0.00027296219  159.61766              2   0.012529942    0.044446443  
     10200   0              0              0              0              155.02833              1   0.0064504338   0.04406172   
     10250   0              0              0              0              157.4417               2   0.012703115    0.042783362  
Loop time of 46.769 on 1 procs for 10000 steps with 2 atoms

Performance: 92368.969 tau/day, 213.817 timesteps/s, 427.634 atom-step/s
94.8% CPU use with 1 MPI tasks x 1 OpenMP threads

MPI task timing breakdown:
Section |  min time  |  avg time  |  max time  |%varavg| %total
---------------------------------------------------------------
Pair    | 0.0065681  | 0.0065681  | 0.0065681  |   0.0 |  0.01
Neigh   | 0.024969   | 0.024969   | 0.024969   |   0.0 |  0.05
Comm    | 0.011304   | 0.011304   | 0.011304   |   0.0 |  0.02
Output  | 0.0027955  | 0.0027955  | 0.0027955  |   0.0 |  0.01
Modify  | 46.7       | 46.7       | 46.7       |   0.0 | 99.85
Other   |            | 0.02337    |            |       |  0.05

Nlocal:              2 ave           2 max           2 min
Histogram: 1 0 0 0 0 0 0 0 0 0
Nghost:             14 ave          14 max          14 min
Histogram: 1 0 0 0 0 0 0 0 0 0
Neighs:              1 ave           1 max           1 min
Histogram: 1 0 0 0 0 0 0 0 0 0

Total # of neighbors = 1
Ave neighs/atom = 0.5
Neighbor list builds = 384070
Dangerous builds = 0
Total wall time: 0:00:46
