LAMMPS (10 Sep 2025 - Development - patch_10Sep2025-574-g1d254e949f-modified)
Running on 2 partitions of processors
 GEMC run progress:   1% 
  Trans: 838/993
  Vol: 145/986
  Ex: 31/1021
  LogVolRatio: 1.51477
 GEMC run progress:   2% 
  Trans: 940/1011
  Vol: 115/980
  Ex: 30/1009
  LogVolRatio: 9.59874
 GEMC run progress:   3% 
  Trans: 906/1024
  Vol: 132/995
  Ex: 32/981
  LogVolRatio: 8.21459
 GEMC run progress:   4% 
  Trans: 891/1016
  Vol: 122/976
  Ex: 29/1008
  LogVolRatio: 8.31379
 GEMC run progress:   5% 
  Trans: 748/983
  Vol: 109/1043
  Ex: 28/974
  LogVolRatio: 6.21824
 GEMC run progress:   6% 
  Trans: 906/1029
  Vol: 102/943
  Ex: 12/1028
  LogVolRatio: 10.9858
 GEMC run progress:   7% 
  Trans: 803/949
  Vol: 132/1013
  Ex: 8/1038
  LogVolRatio: 8.02718
 GEMC run progress:   8% 
  Trans: 715/962
  Vol: 79/994
  Ex: 11/1044
  LogVolRatio: 6.58945
 GEMC run progress:   9% 
  Trans: 934/1056
  Vol: 86/966
  Ex: 3/978
  LogVolRatio: 5.78889
 GEMC run progress:  10% 
  Trans: 831/981
  Vol: 86/1049
  Ex: 4/970
  LogVolRatio: 6.57893
 GEMC run progress:  11% 
  Trans: 731/953
  Vol: 88/1044
  Ex: 8/1003
  LogVolRatio: 2.93079
 GEMC run progress:  12% 
  Trans: 791/1019
  Vol: 104/980
  Ex: 12/1001
  LogVolRatio: 3.05335
 GEMC run progress:  13% 
  Trans: 766/995
  Vol: 107/1012
  Ex: 21/993
  LogVolRatio: 6.08022
 GEMC run progress:  14% 
  Trans: 893/1011
  Vol: 122/1018
  Ex: 10/971
  LogVolRatio: 7.7288
 GEMC run progress:  15% 
  Trans: 841/961
  Vol: 81/1016
  Ex: 11/1023
  LogVolRatio: 5.91599
 GEMC run progress:  16% 
  Trans: 932/994
  Vol: 120/1019
  Ex: 10/987
  LogVolRatio: 5.88348
 GEMC run progress:  17% 
  Trans: 968/1049
  Vol: 117/970
  Ex: 12/981
  LogVolRatio: 4.39012
 GEMC run progress:  18% 
  Trans: 937/1002
  Vol: 91/999
  Ex: 17/999
  LogVolRatio: 4.11694
 GEMC run progress:  19% 
  Trans: 835/1003
  Vol: 94/1000
  Ex: 12/997
  LogVolRatio: 7.90992
 GEMC run progress:  20% 
  Trans: 780/1015
  Vol: 99/969
  Ex: 13/1016
  LogVolRatio: 4.56844
 GEMC run progress:  21% 
  Trans: 709/1014
  Vol: 114/984
  Ex: 26/1002
  LogVolRatio: 11.6312
 GEMC run progress:  22% 
  Trans: 697/988
  Vol: 109/957
  Ex: 21/1055
  LogVolRatio: 13.132
 GEMC run progress:  23% 
  Trans: 684/959
  Vol: 113/1029
  Ex: 18/1012
  LogVolRatio: 13.3231
 GEMC run progress:  24% 
  Trans: 791/976
  Vol: 115/982
  Ex: 19/1042
  LogVolRatio: 14.3271
 GEMC run progress:  25% 
  Trans: 707/966
  Vol: 110/1017
  Ex: 12/1017
  LogVolRatio: 8.3206
 GEMC run progress:  26% 
  Trans: 890/1008
  Vol: 125/976
  Ex: 18/1016
  LogVolRatio: 10.6064
 GEMC run progress:  27% 
  Trans: 792/970
  Vol: 116/996
  Ex: 33/1034
  LogVolRatio: 11.8451
 GEMC run progress:  28% 
  Trans: 746/992
  Vol: 121/999
  Ex: 44/1009
  LogVolRatio: 9.86853
 GEMC run progress:  29% 
  Trans: 866/1038
  Vol: 117/975
  Ex: 30/1017
  LogVolRatio: 8.50143
 GEMC run progress:  30% 
  Trans: 771/992
  Vol: 109/1014
  Ex: 30/964
  LogVolRatio: 8.08672
 GEMC run progress:  31% 
  Trans: 782/948
  Vol: 122/1022
  Ex: 13/1030
  LogVolRatio: 9.1891
 GEMC run progress:  32% 
  Trans: 945/1021
  Vol: 110/968
  Ex: 24/1011
  LogVolRatio: 4.11905
 GEMC run progress:  33% 
  Trans: 911/1028
  Vol: 102/967
  Ex: 21/1005
  LogVolRatio: 3.24516
 GEMC run progress:  34% 
  Trans: 849/1002
  Vol: 117/1000
  Ex: 10/998
  LogVolRatio: 4.08927
 GEMC run progress:  35% 
  Trans: 904/990
  Vol: 121/995
  Ex: 24/1015
  LogVolRatio: 5.26037
 GEMC run progress:  36% 
  Trans: 1012/1020
  Vol: 86/954
  Ex: 8/1026
  LogVolRatio: 4.43842
 GEMC run progress:  37% 
  Trans: 921/984
  Vol: 111/1028
  Ex: 16/988
  LogVolRatio: 5.53453
 GEMC run progress:  38% 
  Trans: 867/1000
  Vol: 111/1006
  Ex: 33/994
  LogVolRatio: 10.2265
 GEMC run progress:  39% 
  Trans: 849/1034
  Vol: 127/985
  Ex: 13/981
  LogVolRatio: 15.1638
 GEMC run progress:  40% 
  Trans: 841/995
  Vol: 99/1002
  Ex: 15/1003
  LogVolRatio: 13.4995
 GEMC run progress:  41% 
  Trans: 931/1015
  Vol: 123/1010
  Ex: 18/975
  LogVolRatio: 6.36268
 GEMC run progress:  42% 
  Trans: 838/1042
  Vol: 96/974
  Ex: 15/984
  LogVolRatio: 7.61265
 GEMC run progress:  43% 
  Trans: 881/1017
  Vol: 113/966
  Ex: 11/1017
  LogVolRatio: 3.1441
 GEMC run progress:  44% 
  Trans: 775/981
  Vol: 118/1009
  Ex: 13/1010
  LogVolRatio: 8.43499
 GEMC run progress:  45% 
  Trans: 853/978
  Vol: 121/968
  Ex: 19/1054
  LogVolRatio: 12.1186
 GEMC run progress:  46% 
  Trans: 853/1003
  Vol: 126/997
  Ex: 35/1000
  LogVolRatio: 8.53108
 GEMC run progress:  47% 
  Trans: 800/1023
  Vol: 118/947
  Ex: 28/1030
  LogVolRatio: 7.55332
 GEMC run progress:  48% 
  Trans: 703/966
  Vol: 104/979
  Ex: 7/1055
  LogVolRatio: 9.57069
 GEMC run progress:  49% 
  Trans: 769/972
  Vol: 111/1060
  Ex: 12/968
  LogVolRatio: 7.71199
 GEMC run progress:  50% 
  Trans: 790/1008
  Vol: 111/1011
  Ex: 12/981
  LogVolRatio: 8.9024
 GEMC run progress:  51% 
  Trans: 735/987
  Vol: 106/986
  Ex: 14/1027
  LogVolRatio: 7.37645
 GEMC run progress:  52% 
  Trans: 719/961
  Vol: 94/957
  Ex: 20/1082
  LogVolRatio: 7.70928
 GEMC run progress:  53% 
  Trans: 739/934
  Vol: 107/1051
  Ex: 8/1015
  LogVolRatio: 7.59541
 GEMC run progress:  54% 
  Trans: 818/1057
  Vol: 85/955
  Ex: 8/988
  LogVolRatio: 8.12809
 GEMC run progress:  55% 
  Trans: 792/1005
  Vol: 116/995
  Ex: 12/1000
  LogVolRatio: 8.15622
 GEMC run progress:  56% 
  Trans: 802/997
  Vol: 102/996
  Ex: 5/1007
  LogVolRatio: 10.9294
 GEMC run progress:  57% 
  Trans: 748/1026
  Vol: 84/1021
  Ex: 8/983
  LogVolRatio: 13.3637
 GEMC run progress:  58% 
  Trans: 707/967
  Vol: 92/1028
  Ex: 26/1005
  LogVolRatio: 17.6764
 GEMC run progress:  59% 
  Trans: 732/1003
  Vol: 106/961
  Ex: 9/1006
  LogVolRatio: 19.3478
 GEMC run progress:  60% 
  Trans: 655/968
  Vol: 95/1033
  Ex: 4/999
  LogVolRatio: 17.9236
 GEMC run progress:  61% 
  Trans: 768/1021
  Vol: 81/957
  Ex: 10/1022
  LogVolRatio: 19.9375
 GEMC run progress:  62% 
  Trans: 766/1011
  Vol: 107/1001
  Ex: 24/988
  LogVolRatio: 24.725
 GEMC run progress:  63% 
  Trans: 766/1010
  Vol: 85/982
  Ex: 20/1008
  LogVolRatio: 30.442
 GEMC run progress:  64% 
  Trans: 736/1030
  Vol: 70/937
  Ex: 7/1033
  LogVolRatio: 29.5291
 GEMC run progress:  65% 
  Trans: 851/1003
  Vol: 106/1016
  Ex: 9/981
  LogVolRatio: 26.8898
 GEMC run progress:  66% 
  Trans: 790/981
  Vol: 100/997
  Ex: 14/1022
  LogVolRatio: 22.813
 GEMC run progress:  67% 
  Trans: 649/988
  Vol: 76/990
  Ex: 7/1022
  LogVolRatio: 20.5964
 GEMC run progress:  68% 
  Trans: 870/992
  Vol: 90/1028
  Ex: 3/980
  LogVolRatio: 21.3987
 GEMC run progress:  69% 
  Trans: 771/959
  Vol: 105/1010
  Ex: 7/1031
  LogVolRatio: 20.5789
 GEMC run progress:  70% 
  Trans: 814/1035
  Vol: 91/1000
  Ex: 5/965
  LogVolRatio: 19.0391
 GEMC run progress:  71% 
  Trans: 817/1016
  Vol: 97/1020
  Ex: 10/964
  LogVolRatio: 16.669
 GEMC run progress:  72% 
  Trans: 836/1019
  Vol: 85/970
  Ex: 20/1011
  LogVolRatio: 14.861
 GEMC run progress:  73% 
  Trans: 786/991
  Vol: 94/991
  Ex: 13/1018
  LogVolRatio: 13.981
 GEMC run progress:  74% 
  Trans: 745/1015
  Vol: 124/966
  Ex: 17/1019
  LogVolRatio: 14.2179
 GEMC run progress:  75% 
  Trans: 759/1044
  Vol: 123/959
  Ex: 21/997
  LogVolRatio: 9.16889
 GEMC run progress:  76% 
  Trans: 763/1021
  Vol: 90/986
  Ex: 17/993
  LogVolRatio: 10.6742
 GEMC run progress:  77% 
  Trans: 777/1000
  Vol: 112/1008
  Ex: 14/992
  LogVolRatio: 13.4431
 GEMC run progress:  78% 
  Trans: 798/1001
  Vol: 110/1049
  Ex: 20/950
  LogVolRatio: 18.2487
 GEMC run progress:  79% 
  Trans: 702/992
  Vol: 117/1022
  Ex: 16/986
  LogVolRatio: 22.5474
 GEMC run progress:  80% 
  Trans: 640/989
  Vol: 103/984
  Ex: 24/1027
  LogVolRatio: 23.9998
 GEMC run progress:  81% 
  Trans: 763/998
  Vol: 113/1000
  Ex: 19/1002
  LogVolRatio: 15.4494
 GEMC run progress:  82% 
  Trans: 742/946
  Vol: 103/1026
  Ex: 16/1028
  LogVolRatio: 18.0313
 GEMC run progress:  83% 
  Trans: 898/1031
  Vol: 108/955
  Ex: 9/1014
  LogVolRatio: 22.2673
 GEMC run progress:  84% 
  Trans: 837/963
  Vol: 100/1030
  Ex: 15/1007
  LogVolRatio: 24.5394
 GEMC run progress:  85% 
  Trans: 801/946
  Vol: 114/1005
  Ex: 15/1049
  LogVolRatio: 27.1534
 GEMC run progress:  86% 
  Trans: 846/975
  Vol: 121/1061
  Ex: 22/964
  LogVolRatio: 27.0872
 GEMC run progress:  87% 
  Trans: 801/1011
  Vol: 104/965
  Ex: 20/1024
  LogVolRatio: 25.4495
 GEMC run progress:  88% 
  Trans: 807/988
  Vol: 109/1012
  Ex: 17/1000
  LogVolRatio: 27.1603
 GEMC run progress:  89% 
  Trans: 886/1018
  Vol: 116/1012
  Ex: 18/970
  LogVolRatio: 26.622
 GEMC run progress:  90% 
  Trans: 876/983
  Vol: 102/1017
  Ex: 22/1000
  LogVolRatio: 29.8427
 GEMC run progress:  91% 
  Trans: 865/1000
  Vol: 93/951
  Ex: 18/1049
  LogVolRatio: 26.9008
 GEMC run progress:  92% 
  Trans: 889/1003
  Vol: 108/988
  Ex: 23/1009
  LogVolRatio: 24.9375
 GEMC run progress:  93% 
  Trans: 835/1003
  Vol: 125/1010
  Ex: 25/987
  LogVolRatio: 25.5031
 GEMC run progress:  94% 
  Trans: 719/978
  Vol: 99/1014
  Ex: 18/1008
  LogVolRatio: 23.1705
 GEMC run progress:  95% 
  Trans: 830/1017
  Vol: 100/1000
  Ex: 13/983
  LogVolRatio: 22.0474
 GEMC run progress:  96% 
  Trans: 723/993
  Vol: 107/1019
  Ex: 13/988
  LogVolRatio: 20.1818
 GEMC run progress:  97% 
  Trans: 866/968
  Vol: 109/1029
  Ex: 18/1003
  LogVolRatio: 21.6243
 GEMC run progress:  98% 
  Trans: 971/1046
  Vol: 95/980
  Ex: 12/974
  LogVolRatio: 24.2781
 GEMC run progress:  99% 
  Trans: 844/1001
  Vol: 101/1003
  Ex: 19/996
  LogVolRatio: 24.6534
 GEMC run progress: 100% 
  Trans: 886/1008
  Vol: 100/1013
  Ex: 13/979
  LogVolRatio: 22.5016
