LAMMPS (10 Sep 2025 - Development - patch_10Sep2025-573-g330f5155a4-modified)
Processor partition = 1
OMP_NUM_THREADS environment is not set. Defaulting to 1 thread.
  using 1 OpenMP thread(s) per MPI task
# 3d Lennard-Jones melt to vapor-liquid mixture GEMC
# mpirun -np 5 ./lmp -in in.gemc.lj -p 1 4

variable        temp index 1.0
variable        ntranslate index 10
variable        nexchange index 10
variable        nvolume index 10
variable        displace index 0.5
#variable        max_volume index 100.0
variable        max_dlogvolratio index 0.1
variable        nsteps index 10000

units           lj
atom_style      atomic

# initialize gas state in partition 1

partition       yes 1 lattice fcc 0.05
partition       yes 1 region box block 0 1 0 1 0 1

# initialize liquid state in partition 2

partition       yes 2 lattice fcc 0.6
lattice fcc 0.6
Lattice spacing in x,y,z = 1.8820721 1.8820721 1.8820721
partition       yes 2 region box block 0 3 0 3 0 3
region box block 0 3 0 3 0 3

create_box      1 box
Created orthogonal box = (0 0 0) to (5.6462162 5.6462162 5.6462162)
  1 by 2 by 2 MPI processor grid
create_atoms    1 box
Created 108 atoms
  using lattice units in orthogonal box = (0 0 0) to (5.6462162 5.6462162 5.6462162)
  create_atoms CPU = 0.000 seconds
mass            1 1.0

velocity        all create 3.0 87287 loop geom

pair_style      lj/cut 2.5
pair_coeff      1 1 1.0 1.0 2.5

neighbor        0.3 bin
neigh_modify    every 1 delay 5 check yes

fix             1 all nve

thermo          50
thermo_style    custom step temp pe etotal press vol atoms density
run             250
Generated 0 of 0 mixed pair_coeff terms from geometric mixing rule
Neighbor list info ...
  update: every = 1 steps, delay = 5 steps, check = yes
  max neighbors/atom: 2000, page size: 100000
  master list distance cutoff = 2.8
  ghost atom cutoff = 2.8
  binsize = 1.4, bins = 5 5 5
  1 neighbor lists, perpetual/occasional/extra = 1 0 0
  (1) pair lj/cut, perpetual
      attributes: half, newton on
      pair build: half/bin/atomonly/newton
      stencil: half/bin/3d
      bin: standard
Per MPI rank memory allocation (min/avg/max) = 3.061 | 3.061 | 3.061 Mbytes
   Step          Temp          PotEng         TotEng         Press          Volume        Atoms       Density    
         0   3             -4.1241917      0.33414167    -2.2227267      180                  108   0.6          
        50   2.196824      -2.9056637      0.35906085     4.0902344      180                  108   0.6          
       100   2.4296563     -3.2491278      0.36161142     3.0239251      180                  108   0.6          
       150   2.3933594     -3.1973246      0.35947343     2.9220808      180                  108   0.6          
       200   2.3489459     -3.1289633      0.36183139     3.38915        180                  108   0.6          
       250   2.5110637     -3.3703887      0.36133095     2.6457948      180                  108   0.6          
Loop time of 0.00767861 on 4 procs for 250 steps with 108 atoms

Performance: 14065041.505 tau/day, 32557.966 timesteps/s, 3.516 Matom-step/s
98.6% CPU use with 4 MPI tasks x 1 OpenMP threads

MPI task timing breakdown:
Section |  min time  |  avg time  |  max time  |%varavg| %total
---------------------------------------------------------------
Pair    | 0.0016706  | 0.0020221  | 0.0021711  |   0.5 | 26.33
Neigh   | 0.0012517  | 0.0013982  | 0.0015768  |   0.3 | 18.21
Comm    | 0.0034917  | 0.0038203  | 0.0043191  |   0.5 | 49.75
Output  | 6.3047e-05 | 6.3888e-05 | 6.5594e-05 |   0.0 |  0.83
Modify  | 0.00010802 | 0.00012172 | 0.00013232 |   0.0 |  1.59
Other   |            | 0.0002524  |            |       |  3.29

Nlocal:             27 ave          33 max          21 min
Histogram: 1 0 0 0 1 1 0 0 0 1
Nghost:            453 ave         473 max         430 min
Histogram: 1 0 1 0 0 0 0 0 0 2
Neighs:            738 ave         903 max         508 min
Histogram: 1 0 0 0 0 1 0 1 0 1

Total # of neighbors = 2952
Ave neighs/atom = 27.333333
Neighbor list builds = 40
Dangerous builds = 4
unfix           1

velocity        all create 0.0 87287 loop geom

#   args: nevery ntranslate nexchange nvolume box_temp displace max_volume seed
#fix              2 all gemc 1 ${ntranslate} ${nexchange} ${nvolume} ${temp} ${displace} ${max_volume} 29494
#   args: nevery ntranslate nexchange nvolume box_temp displace max_dlogvolratio seed
fix              2 all gemc 1 ${ntranslate} ${nexchange} ${nvolume} ${temp} ${displace} ${max_dlogvolratio} 29494
fix              2 all gemc 1 10 ${nexchange} ${nvolume} ${temp} ${displace} ${max_dlogvolratio} 29494
fix              2 all gemc 1 10 10 ${nvolume} ${temp} ${displace} ${max_dlogvolratio} 29494
fix              2 all gemc 1 10 10 10 ${temp} ${displace} ${max_dlogvolratio} 29494
fix              2 all gemc 1 10 10 10 1.0 ${displace} ${max_dlogvolratio} 29494
fix              2 all gemc 1 10 10 10 1.0 0.5 ${max_dlogvolratio} 29494
fix              2 all gemc 1 10 10 10 1.0 0.5 0.1 29494

variable        mydensity equal density
fix             3 all ave/time 1 50 50 v_mydensity ave window 20
thermo_style    custom step temp pe etotal press vol atoms density f_3

run             ${nsteps}
run             10000
WARNING: No fixes with time integration, atoms won't move
For more information see https://docs.lammps.org/err0028 (src/verlet.cpp:60)
Generated 0 of 0 mixed pair_coeff terms from geometric mixing rule
0 atoms in group FixGEMC:gemc_exclusion_group:2
Per MPI rank memory allocation (min/avg/max) = 3.066 | 3.069 | 3.071 Mbytes
   Step          Temp          PotEng         TotEng         Press          Volume        Atoms       Density          f_3      
       250   0             -3.3703887     -3.3703887      1.153107       180                  108   0.6            0            
       300   0             -3.5600969     -3.5600969     -0.30985104     193.8476             108   0.55713869     0.5650333    
       350   0             -3.4264706     -3.4264706     -0.48426772     200.99396            110   0.54728012     0.55686663   
       400   0             -3.4096082     -3.4096082     -0.56104534     209.468              109   0.52036587     0.54954251   
       450   0             -3.5892696     -3.5892696     -0.51175655     196.19648            108   0.5504686      0.54867975   
       500   0             -3.8097577     -3.8097577     -0.69330089     181.17777            105   0.5795413      0.55522431   
       550   0             -3.7385823     -3.7385823     -0.77289822     183.59224            105   0.57191961     0.56100429   
       600   0             -3.7804956     -3.7804956     -0.47336985     182.27507            107   0.58702487     0.56573004   
       650   0             -3.8850438     -3.8850438     -0.13486213     178.25003            110   0.61711071     0.57058347   
       700   0             -4.0284992     -4.0284992     -0.47469688     177.80618            109   0.61302705     0.57521365   
       750   0             -3.8332022     -3.8332022     -0.56480142     181.41393            105   0.57878687     0.57816866   
       800   0             -3.8150475     -3.8150475     -0.055170109    177.07761            107   0.60425484     0.57921126   
       850   0             -3.8357225     -3.8357225     -0.61187158     182.78764            107   0.58537875     0.58111469   
       900   0             -3.7453433     -3.7453433     -0.24543599     181.66988            107   0.58898042     0.5810042    
       950   0             -3.8172897     -3.8172897     -0.18007232     180.33282            108   0.59889264     0.58125124   
      1000   0             -3.761783      -3.761783      -0.3519306      183.8683             108   0.58737696     0.58148137   
      1050   0             -3.964021      -3.964021      -0.072186289    173.36976            107   0.617178       0.58246501   
      1100   0             -3.6889021     -3.6889021     -0.28713268     178.87464            101   0.56464123     0.58202947   
      1150   0             -3.6859112     -3.6859112     -0.53400307     183.73032            104   0.56604703     0.58144303   
      1200   0             -3.7496628     -3.7496628     -1.0255052      190.10242            104   0.54707352     0.58086899   
      1250   0             -3.836199      -3.836199      -0.32456671     182.59701            107   0.58598987     0.58169303   
      1300   0             -3.8633504     -3.8633504     -0.71889068     181.05895            107   0.59096773     0.58276569   
      1350   0             -3.6181196     -3.6181196     -0.082072297    183.52913            106   0.57756499     0.58523019   
      1400   0             -3.7309458     -3.7309458     -0.33501427     174.9143             101   0.57742563     0.5875584    
      1450   0             -3.7678721     -3.7678721     -0.37971311     174.00493            105   0.60343118     0.58973066   
      1500   0             -3.9797073     -3.9797073     -0.85142099     172.15298            106   0.61573141     0.59147978   
      1550   0             -4.1830145     -4.1830145     -0.78433798     165.17849            106   0.64173003     0.59396676   
      1600   0             -3.996936      -3.996936      -0.13755748     161.23756            103   0.63880899     0.59677413   
      1650   0             -4.0872324     -4.0872324      0.21947042     153.59097            102   0.66410153     0.59797537   
      1700   0             -3.9080136     -3.9080136     -0.75628384     166.27505            101   0.60742726     0.59950537   
      1750   0             -3.9825965     -3.9825965     -0.71338589     160.08623             98   0.61217008     0.60057033   
      1800   0             -3.9373156     -3.9373156     -0.67751315     162.6757             100   0.61471998     0.60249223   
      1850   0             -3.8655976     -3.8655976     -0.62497605     167.39167            101   0.60337529     0.60309195   
      1900   0             -3.791197      -3.791197      -0.51987754     165.9154              98   0.59066246     0.60477537   
      1950   0             -3.788929      -3.788929      -0.31711116     164.80725             99   0.60070173     0.60563855   
      2000   0             -3.8685304     -3.8685304     -0.075690992    158.8292              99   0.62331106     0.60612192   
      2050   0             -4.0168417     -4.0168417     -0.45204863     161.15989            101   0.62670681     0.60762189   
      2100   0             -4.0179364     -4.0179364     -0.21285583     169.30867            107   0.6319818      0.61001448   
      2150   0             -3.9911009     -3.9911009     -0.35986074     171.41768            107   0.62420632     0.61276572   
      2200   0             -4.096316      -4.096316      -0.80421332     169.28371            105   0.62026049     0.61517801   
      2250   0             -4.1241789     -4.1241789     -0.034236211    163.66905            106   0.6476484      0.61736313   
      2300   0             -3.9076416     -3.9076416     -0.63458315     172.44764            104   0.6030816      0.61912779   
      2350   0             -3.9332487     -3.9332487      0.0076465404   166.20767            105   0.63173979     0.6196336    
      2400   0             -3.8886654     -3.8886654     -0.11039301     176.46473            109   0.61768716     0.62123176   
      2450   0             -3.6655962     -3.6655962      0.16537163     170.03921            102   0.59986165     0.62131082   
      2500   0             -3.7995038     -3.7995038     -0.41951884     175.3261             104   0.59318038     0.61993608   
      2550   0             -3.8720684     -3.8720684     -0.82158632     173.27727            101   0.58288085     0.61769031   
      2600   0             -4.0076829     -4.0076829     -0.68693406     172.21176            105   0.60971446     0.61599519   
      2650   0             -4.0160849     -4.0160849     -0.36346717     169.22805            106   0.62637369     0.61559932   
      2700   0             -4.1665491     -4.1665491     -0.47864531     161.1013             103   0.63934926     0.6151923    
      2750   0             -4.1562894     -4.1562894      0.01319588     157.48748            104   0.66036995     0.61616199   
      2800   0             -4.0546512     -4.0546512     -0.84678923     166.95444            104   0.62292443     0.61684762   
      2850   0             -3.9831683     -3.9831683     -0.77734694     170.2217             105   0.61684263     0.6179537    
      2900   0             -4.0362244     -4.0362244     -0.28235174     167.37131            106   0.63332239     0.61863488   
      2950   0             -3.9849165     -3.9849165     -0.12853207     168.45529            106   0.62924708     0.61917967   
      3000   0             -4.0197278     -4.0197278     -0.61723324     168.13583            104   0.61854752     0.62095111   
      3050   0             -4.1128561     -4.1128561     -0.55903272     165.97281            106   0.63865884     0.62156795   
      3100   0             -4.1165108     -4.1165108     -0.10366613     169.37803            110   0.64943489     0.62208942   
      3150   0             -3.7820907     -3.7820907     -0.41452607     179.75499            105   0.58412842     0.62149415   
      3200   0             -3.9659212     -3.9659212      0.2054516      166.03672            105   0.63239022     0.62120168   
      3250   0             -3.984037      -3.984037      -0.69912298     171.9554             106   0.61643893     0.62022921   
      3300   0             -4.0532148     -4.0532148     -0.33636005     165.20315            106   0.64163425     0.62087396   
      3350   0             -3.9963956     -3.9963956     -0.84762012     174.55421            107   0.61299009     0.62164023   
      3400   0             -4.1961587     -4.1961587      0.22591191     160.21462            107   0.66785414     0.62331217   
      3450   0             -4.1456332     -4.1456332     -0.60717865     167.30243            106   0.63358313     0.62628935   
      3500   0             -3.9825388     -3.9825388     -0.70328959     171.04928            105   0.61385819     0.62890848   
      3550   0             -3.9674105     -3.9674105     -0.17651901     169.76711            105   0.61849435     0.63025813   
      3600   0             -3.9536908     -3.9536908     -0.68457029     175.74924            107   0.60882197     0.63058086   
      3650   0             -3.8352125     -3.8352125     -0.18109884     166.32381            101   0.60724921     0.62974501   
      3700   0             -4.069425      -4.069425      -0.42876228     169.01239            107   0.63308969     0.6293407    
      3750   0             -4.1116602     -4.1116602     -0.97368334     170.39614            108   0.63381716     0.62913698   
      3800   0             -4.1641044     -4.1641044     -0.66457013     167.78093            108   0.6436965      0.629182     
      3850   0             -4.1263665     -4.1263665      0.24688268     156.01577            102   0.65378005     0.62977224   
      3900   0             -4.1120001     -4.1120001     -0.88699228     171.8026             107   0.62280781     0.6300755    
      3950   0             -4.3103577     -4.3103577     -0.37757814     161.15311            107   0.66396487     0.6324501    
      4000   0             -4.3608565     -4.3608565     -0.75707214     162.7597             107   0.65741091     0.63447936   
      4050   0             -4.184298      -4.184298      -0.66446359     164.73364            106   0.64346299     0.6352135    
      4100   0             -4.3513784     -4.3513784      0.15001308     158.56323            108   0.6811163      0.63649514   
      4150   0             -4.313758      -4.313758      -0.84024597     166.84425            107   0.64131669     0.63933683   
      4200   0             -4.2964553     -4.2964553     -0.53235688     164.46065            108   0.65669204     0.64152414   
      4250   0             -4.0072618     -4.0072618     -0.83308769     172.43794            105   0.60891472     0.64228359   
      4300   0             -4.0365767     -4.0365767     -0.10803719     165.16819            104   0.62966121     0.64223156   
      4350   0             -3.951344      -3.951344      -0.52523234     173.86434            108   0.62117397     0.64218896   
      4400   0             -3.901029      -3.901029      -0.63685458     179.3811             109   0.60764484     0.64056466   
      4450   0             -3.9996441     -3.9996441     -0.58900056     181.0973             111   0.61293017     0.63899934   
      4500   0             -3.9536953     -3.9536953     -0.042894122    175.26917            109   0.62190058     0.6372973    
      4550   0             -4.0102787     -4.0102787      0.16292969     171.93548            109   0.63395875     0.63671895   
      4600   0             -3.836467      -3.836467      -0.57718903     180.54149            107   0.59266155     0.63547132   
      4650   0             -3.8414514     -3.8414514     -0.68708759     184.44983            108   0.58552508     0.63504156   
      4700   0             -3.8880436     -3.8880436     -0.18431216     180.86551            111   0.61371568     0.63356866   
      4750   0             -3.9145273     -3.9145273     -0.17243782     176.9297             108   0.61041193     0.63188694   
      4800   0             -3.9470092     -3.9470092     -0.055787002    175.36376            107   0.61016027     0.62965164   
      4850   0             -3.9065251     -3.9065251     -0.79327855     183.37597            105   0.57259411     0.62690545   
      4900   0             -3.7865251     -3.7865251     -0.40266604     189.16101            109   0.57622869     0.62384292   
      4950   0             -3.9262368     -3.9262368     -0.98703257     192.12902            110   0.57253195     0.62042036   
      5000   0             -3.9902209     -3.9902209     -0.35889369     179.84472            111   0.61719909     0.61691401   
      5050   0             -3.89782       -3.89782       -0.34897027     179.33193            109   0.60781144     0.61406543   
      5100   0             -3.8071734     -3.8071734     -0.47338077     185.14683            107   0.5779197      0.61122584   
      5150   0             -3.6736089     -3.6736089      0.12903741     182.61321            108   0.59141395     0.60687872   
      5200   0             -3.7509657     -3.7509657     -0.036006354    179.28709            106   0.59123052     0.60271058   
      5250   0             -3.8683029     -3.8683029     -0.73311943     186.1453             108   0.58019193     0.60035189   
      5300   0             -3.8445869     -3.8445869     -0.47101927     184.87564            107   0.57876743     0.59805879   
      5350   0             -3.9736671     -3.9736671     -0.087405815    174.89487            109   0.62323155     0.596822     
      5400   0             -3.8272295     -3.8272295     -0.39295334     179.72863            106   0.58977805     0.59587076   
      5450   0             -3.7752254     -3.7752254     -0.76437895     181.39278            104   0.57334146     0.59425967   
      5500   0             -3.9788008     -3.9788008     -0.72262625     175.73262            107   0.60887956     0.59422191   
      5550   0             -4.0421415     -4.0421415     -0.10187092     172.14078            109   0.63320266     0.59444771   
      5600   0             -3.9294187     -3.9294187      0.15067073     170.85289            107   0.62626978     0.59524802   
      5650   0             -3.7533701     -3.7533701      0.026795209    174.94507            105   0.60018839     0.59503431   
      5700   0             -3.8009994     -3.8009994     -0.99282853     184.14934            106   0.57561977     0.59527441   
      5750   0             -3.9266181     -3.9266181     -0.82245871     178.50781            106   0.59381154     0.59495307   
      5800   0             -3.90995       -3.90995       -0.69616522     176.00473            105   0.59657488     0.59545322   
      5850   0             -3.9607851     -3.9607851     -0.012924367    171.16479            106   0.61928625     0.59645525   
      5900   0             -4.0066616     -4.0066616     -0.24312718     172.15384            107   0.62153711     0.59779906   
      5950   0             -4.0970917     -4.0970917     -0.39905474     168.04539            105   0.62483119     0.5992639    
      6000   0             -4.1647884     -4.1647884     -0.52911658     168.39099            109   0.64730306     0.60074509   
      6050   0             -4.2351578     -4.2351578      0.3397286      158.88709            107   0.67343418     0.6033273    
      6100   0             -4.3016973     -4.3016973     -0.73980337     162.257              107   0.65944768     0.60560989   
      6150   0             -4.3267927     -4.3267927     -0.24913564     158.03916            106   0.67071985     0.60955606   
      6200   0             -4.3787684     -4.3787684      0.24990535     155.02571            108   0.69665865     0.61432268   
      6250   0             -4.3031694     -4.3031694     -0.90580806     166.8678             110   0.65920447     0.61837062   
      6300   0             -4.3905833     -4.3905833     -0.42480944     162.70977            110   0.67605035     0.62241551   
      6350   0             -4.494659      -4.494659      -0.36223606     156.66219            108   0.68938141     0.62631782   
      6400   0             -4.6035442     -4.6035442     -0.091952731    154.95151            110   0.70989948     0.63114948   
      6450   0             -4.551806      -4.551806      -0.33254647     155.18721            106   0.68304599     0.63610546   
      6500   0             -4.461254      -4.461254      -1.0421885      159.80777            105   0.65703939     0.63978896   
      6550   0             -4.4868462     -4.4868462     -0.94574428     156.84664            105   0.66944374     0.64318571   
      6600   0             -4.5911316     -4.5911316     -0.59805288     152.59358            106   0.6946557      0.64665854   
      6650   0             -4.3252023     -4.3252023     -0.67198575     160.67526            106   0.65971574     0.65116958   
      6700   0             -4.5777862     -4.5777862     -0.68229714     153.95246            107   0.69501977     0.65516631   
      6750   0             -4.5463685     -4.5463685      0.10988774     150.02036            107   0.71323654     0.66023288   
      6800   0             -4.580248      -4.580248      -0.84656699     153.98521            106   0.68837779     0.66519752   
      6850   0             -4.6718395     -4.6718395     -0.16830308     149.28897            107   0.71673079     0.66963265   
      6900   0             -4.5878178     -4.5878178     -0.45281985     153.81062            108   0.70216217     0.67500673   
      6950   0             -4.6379558     -4.6379558     -0.33165421     152.29041            109   0.71573777     0.67866397   
      7000   0             -4.4334794     -4.4334794     -0.56297319     158.04794            107   0.67700975     0.68196433   
      7050   0             -4.4731732     -4.4731732     -0.86987549     158.34086            107   0.67575736     0.68427641   
      7100   0             -4.5352179     -4.5352179      0.025373144    149.24629            105   0.70353508     0.68643473   
      7150   0             -4.5602485     -4.5602485      0.23662261     146.54631            104   0.70967328     0.68799919   
      7200   0             -4.4404625     -4.4404625     -1.0144958      158.01305            104   0.65817351     0.68855661   
      7250   0             -4.4994526     -4.4994526     -0.25009347     149.58986            103   0.68854932     0.68876598   
      7300   0             -4.560476      -4.560476       0.26845257     146.50787            104   0.70985946     0.68922444   
      7350   0             -4.4529142     -4.4529142     -0.32776197     152.62018            105   0.68798243     0.68975389   
      7400   0             -4.5133938     -4.5133938     -0.39949674     154.64441            106   0.68544346     0.6890342    
      7450   0             -4.447142      -4.447142      -0.44094731     157.93108            108   0.68384261     0.68859735   
      7500   0             -4.4321737     -4.4321737     -0.027940742    154.76979            107   0.69134937     0.68874      
      7550   0             -4.4615649     -4.4615649     -0.72711245     157.84125            107   0.67789629     0.68908056   
      7600   0             -4.4649487     -4.4649487     -0.53004741     156.81173            106   0.67596983     0.68923382   
      7650   0             -4.4157273     -4.4157273     -0.57368863     162.35571            110   0.67752466     0.68916594   
      7700   0             -4.2864266     -4.2864266      0.60577643     149.53218            102   0.68212742     0.68886434   
      7750   0             -4.2425099     -4.2425099     -0.49928053     160.27653            104   0.64887852     0.68620194   
      7800   0             -4.1628906     -4.1628906     -0.33174683     165.18965            106   0.6416867      0.68291733   
      7850   0             -4.258906      -4.258906      -0.2639301      163.23586            108   0.66161934     0.68018408   
      7900   0             -4.3704632     -4.3704632     -0.52187417     155.5638             104   0.668536       0.67811499   
      7950   0             -4.2282538     -4.2282538     -0.1344154      156.13645            102   0.65327475     0.67604144   
      8000   0             -4.0518497     -4.0518497     -0.70576497     165.60327            102   0.61592985     0.67296599   
      8050   0             -4.1484513     -4.1484513     -0.01549231     156.53686            102   0.6516037      0.66970992   
      8100   0             -4.0301776     -4.0301776     -0.93703912     162.22157             98   0.60411201     0.66605186   
      8150   0             -4.0056987     -4.0056987     -0.82953272     165.95388            101   0.60860283     0.66205381   
      8200   0             -4.0098866     -4.0098866     -0.3426266      162.19047            103   0.63505581     0.65940094   
      8250   0             -4.0061924     -4.0061924     -0.82948329     163.44965            101   0.61792728     0.65727539   
      8300   0             -3.9909724     -3.9909724     -0.50428898     162.34932            101   0.62211534     0.65438297   
      8350   0             -3.9775756     -3.9775756     -0.38422837     169.04181            104   0.6152324      0.65040792   
      8400   0             -3.9416298     -3.9416298     -0.11740673     165.71348            101   0.60948573     0.64697596   
      8450   0             -4.2280137     -4.2280137     -0.26666514     166.28395            108   0.64949142     0.64420709   
      8500   0             -4.2519377     -4.2519377      0.089303308    161.14448            109   0.67641162     0.6423296    
      8550   0             -4.1015543     -4.1015543      0.16219686     165.75625            109   0.6575921      0.64024476   
      8600   0             -3.9606752     -3.9606752     -0.51764727     173.63459            107   0.61623668     0.63761746   
      8650   0             -3.9762188     -3.9762188      0.32707367     164.889              107   0.6489214      0.63464436   
      8700   0             -3.8954328     -3.8954328     -0.18145523     167.64287            102   0.60843626     0.63148855   
      8750   0             -3.8935477     -3.8935477      0.2234454      165.77623            103   0.62131949     0.62891583   
      8800   0             -4.1056207     -4.1056207     -0.25128112     170.76075            110   0.64417612     0.62778576   
      8850   0             -3.9782686     -3.9782686     -0.46805343     178.41742            108   0.60532208     0.62636646   
      8900   0             -3.8655624     -3.8655624     -0.013589707    175.857              108   0.61413535     0.62378035   
      8950   0             -3.7994092     -3.7994092     -0.45933749     183.32543            109   0.59457107     0.62101387   
      9000   0             -3.9580304     -3.9580304     -0.3477601      178.41812            110   0.61652931     0.6197774    
      9050   0             -4.0071043     -4.0071043     -0.67113271     178.73379            108   0.60425061     0.61865001   
      9100   0             -4.0178819     -4.0178819     -1.0139971      180.94414            110   0.60792241     0.61884333   
      9150   0             -4.0810131     -4.0810131     -0.28384561     173.26826            111   0.64062512     0.6195551    
      9200   0             -3.9256673     -3.9256673     -0.34483142     177.2175             109   0.61506341     0.61974765   
      9250   0             -3.8478215     -3.8478215     -1.0637747      183.20679            106   0.57858118     0.61765597   
      9300   0             -3.7403461     -3.7403461     -0.68308723     177.24091            101   0.56984588     0.61662644   
      9350   0             -3.8252761     -3.8252761     -0.52264222     172.80481            104   0.6018351      0.61534728   
      9400   0             -3.7992838     -3.7992838     -0.49282795     171.12464            102   0.59605676     0.61509691   
      9450   0             -3.9981751     -3.9981751     -0.70998127     170.36165            105   0.61633588     0.61481252   
      9500   0             -3.9533034     -3.9533034     -0.79568841     170.79075            104   0.60893228     0.6139635    
      9550   0             -3.790287      -3.790287      -0.80271971     175.2011             103   0.58789585     0.61228608   
      9600   0             -3.9560083     -3.9560083     -0.14775128     163.8924             103   0.62846113     0.61070471   
      9650   0             -4.0826416     -4.0826416     -0.36129336     164.53406            105   0.63816572     0.61090099   
      9700   0             -3.8937412     -3.8937412     -0.39289069     169.49324            104   0.61359379     0.61080469   
      9750   0             -3.986675      -3.986675      -0.57543638     169.04001            104   0.61523895     0.61157996   
      9800   0             -3.968408      -3.968408      -0.08027565     168.27081            106   0.62993693     0.61198605   
      9850   0             -4.0538536     -4.0538536     -0.23201206     170.11484            104   0.61135171     0.6119168    
      9900   0             -4.1874482     -4.1874482     -0.49345603     169.70277            109   0.64229947     0.61273364   
      9950   0             -4.1441991     -4.1441991     -0.53160476     166.78163            108   0.64755334     0.61505443   
     10000   0             -4.0751875     -4.0751875     -0.66832614     168.5878             106   0.62875249     0.61675559   
     10050   0             -3.8002103     -3.8002103     -0.19806088     170.82765            103   0.6029469      0.6170691    
     10100   0             -3.9036962     -3.9036962     -0.22692868     176.96617            109   0.61593695     0.61581167   
     10150   0             -3.8445878     -3.8445878     -0.38392278     183.19575            110   0.6004506      0.61376182   
     10200   0             -4.1106301     -4.1106301     -0.41896958     174.75262            111   0.63518363     0.61273865   
     10250   0             -3.9271966     -3.9271966     -0.49295151     180.21704            110   0.61037515     0.61445653   
Loop time of 46.769 on 4 procs for 10000 steps with 110 atoms

Performance: 92368.861 tau/day, 213.817 timesteps/s, 23.520 katom-step/s
94.5% CPU use with 4 MPI tasks x 1 OpenMP threads

MPI task timing breakdown:
Section |  min time  |  avg time  |  max time  |%varavg| %total
---------------------------------------------------------------
Pair    | 0.14953    | 0.16393    | 0.1838     |   3.5 |  0.35
Neigh   | 0.50654    | 0.55522    | 0.58798    |   4.0 |  1.19
Comm    | 0.39276    | 0.47113    | 0.54279    |   7.9 |  1.01
Output  | 0.0034525  | 0.003647   | 0.0041284  |   0.5 |  0.01
Modify  | 45.534     | 45.548     | 45.574     |   0.2 | 97.39
Other   |            | 0.02722    |            |       |  0.06

Nlocal:           27.5 ave          32 max          22 min
Histogram: 1 0 0 0 0 1 0 1 0 1
Nghost:         463.75 ave         480 max         445 min
Histogram: 1 0 1 0 0 0 0 0 0 2
Neighs:          765.5 ave         915 max         608 min
Histogram: 1 0 0 0 1 0 1 0 0 1

Total # of neighbors = 3062
Ave neighs/atom = 27.836364
Neighbor list builds = 453901
Dangerous builds = 0
Total wall time: 0:00:46
