LAMMPS (10 Sep 2025 - Development - patch_10Sep2025-574-g1d254e949f-modified)
Processor partition = 1
OMP_NUM_THREADS environment is not set. Defaulting to 1 thread.
  using 1 OpenMP thread(s) per MPI task
# 3d Lennard-Jones melt to vapor-liquid mixture GEMC
# mpirun -np 5 ./lmp -in in.gemc.lj -p 1 4

variable        temp index 1.0
variable        ntranslate index 10
variable        nexchange index 10
variable        nvolume index 10
variable        displace index 0.5
variable        max_dlogvolratio index 0.5
variable        nsteps index 10000

units           lj
atom_style      atomic

# initialize gas state in partition 1

partition       yes 1 lattice fcc 0.05
partition       yes 1 region box block 0 1 0 1 0 1

# initialize liquid state in partition 2

partition       yes 2 lattice fcc 0.6
lattice fcc 0.6
Lattice spacing in x,y,z = 1.8820721 1.8820721 1.8820721
partition       yes 2 region box block 0 3 0 3 0 3
region box block 0 3 0 3 0 3

create_box      1 box
Created orthogonal box = (0 0 0) to (5.6462162 5.6462162 5.6462162)
  1 by 2 by 2 MPI processor grid
create_atoms    1 box
Created 108 atoms
  using lattice units in orthogonal box = (0 0 0) to (5.6462162 5.6462162 5.6462162)
  create_atoms CPU = 0.000 seconds
mass            1 1.0

velocity        all create 3.0 87287 loop geom

pair_style      lj/cut 2.5
pair_coeff      1 1 1.0 1.0 2.5

neighbor        0.3 bin
neigh_modify    every 1 delay 5 check yes

fix             1 all nve

thermo          50
thermo_style    custom step temp pe etotal press vol atoms density
run             250
Generated 0 of 0 mixed pair_coeff terms from geometric mixing rule
Neighbor list info ...
  update: every = 1 steps, delay = 5 steps, check = yes
  max neighbors/atom: 2000, page size: 100000
  master list distance cutoff = 2.8
  ghost atom cutoff = 2.8
  binsize = 1.4, bins = 5 5 5
  1 neighbor lists, perpetual/occasional/extra = 1 0 0
  (1) pair lj/cut, perpetual
      attributes: half, newton on
      pair build: half/bin/atomonly/newton
      stencil: half/bin/3d
      bin: standard
Per MPI rank memory allocation (min/avg/max) = 3.061 | 3.061 | 3.061 Mbytes
   Step          Temp          PotEng         TotEng         Press          Volume        Atoms       Density    
         0   3             -4.1241917      0.33414167    -2.2227267      180                  108   0.6          
        50   2.196824      -2.9056637      0.35906085     4.0902344      180                  108   0.6          
       100   2.4296563     -3.2491278      0.36161142     3.0239251      180                  108   0.6          
       150   2.3933594     -3.1973246      0.35947343     2.9220808      180                  108   0.6          
       200   2.3489459     -3.1289633      0.36183139     3.38915        180                  108   0.6          
       250   2.5110637     -3.3703887      0.36133095     2.6457948      180                  108   0.6          
Loop time of 0.0067887 on 4 procs for 250 steps with 108 atoms

Performance: 15908789.606 tau/day, 36825.902 timesteps/s, 3.977 Matom-step/s
99.5% CPU use with 4 MPI tasks x 1 OpenMP threads

MPI task timing breakdown:
Section |  min time  |  avg time  |  max time  |%varavg| %total
---------------------------------------------------------------
Pair    | 0.0015643  | 0.0019211  | 0.0021542  |   0.5 | 28.30
Neigh   | 0.0011711  | 0.0012163  | 0.0012619  |   0.1 | 17.92
Comm    | 0.0030138  | 0.0032965  | 0.0036978  |   0.4 | 48.56
Output  | 4.724e-05  | 4.7765e-05 | 4.8556e-05 |   0.0 |  0.70
Modify  | 0.00010131 | 0.00010533 | 0.00011313 |   0.0 |  1.55
Other   |            | 0.0002016  |            |       |  2.97

Nlocal:             27 ave          33 max          21 min
Histogram: 1 0 0 0 1 1 0 0 0 1
Nghost:            453 ave         473 max         430 min
Histogram: 1 0 1 0 0 0 0 0 0 2
Neighs:            738 ave         903 max         508 min
Histogram: 1 0 0 0 0 1 0 1 0 1

Total # of neighbors = 2952
Ave neighs/atom = 27.333333
Neighbor list builds = 40
Dangerous builds = 4
unfix           1

velocity        all create 0.0 87287 loop geom

#   args: nevery ntranslate nexchange nvolume box_temp displace max_dlogvolratio seed
fix              2 all gemc 1 ${ntranslate} ${nexchange} ${nvolume} ${temp} ${displace} ${max_dlogvolratio} 29494
fix              2 all gemc 1 10 ${nexchange} ${nvolume} ${temp} ${displace} ${max_dlogvolratio} 29494
fix              2 all gemc 1 10 10 ${nvolume} ${temp} ${displace} ${max_dlogvolratio} 29494
fix              2 all gemc 1 10 10 10 ${temp} ${displace} ${max_dlogvolratio} 29494
fix              2 all gemc 1 10 10 10 1.0 ${displace} ${max_dlogvolratio} 29494
fix              2 all gemc 1 10 10 10 1.0 0.5 ${max_dlogvolratio} 29494
fix              2 all gemc 1 10 10 10 1.0 0.5 0.5 29494

variable        mydensity equal density
fix             3 all ave/time 1 50 50 v_mydensity ave window 20
thermo_style    custom step temp pe etotal press vol atoms density f_3

run             ${nsteps}
run             10000
WARNING: No fixes with time integration, atoms won't move
For more information see https://docs.lammps.org/err0028 (src/verlet.cpp:60)
Generated 0 of 0 mixed pair_coeff terms from geometric mixing rule
0 atoms in group FixGEMC:gemc_exclusion_group:2
Per MPI rank memory allocation (min/avg/max) = 3.066 | 3.069 | 3.071 Mbytes
   Step          Temp          PotEng         TotEng         Press          Volume        Atoms       Density          f_3      
       250   0             -3.3703887     -3.3703887      1.153107       180                  108   0.6            0            
       300   0             -3.6139037     -3.6139037     -0.52524525     185.70135            106   0.57080898     0.56592265   
       350   0             -3.6120892     -3.6120892     -0.83447562     191.93192            107   0.55748934     0.57281266   
       400   0             -3.9341467     -3.9341467     -0.032689028    175.18233            107   0.61079218     0.57846557   
       450   0             -3.9015534     -3.9015534     -0.3610774      178.16349            109   0.61179761     0.58699314   
       500   0             -3.8985806     -3.8985806     -0.65734769     184.91113            108   0.58406435     0.58846441   
       550   0             -3.9184203     -3.9184203     -0.62431981     180.78827            107   0.59185256     0.58910196   
       600   0             -3.9045391     -3.9045391     -0.64304288     180.67179            107   0.59223413     0.58956172   
       650   0             -4.0227624     -4.0227624      0.032836708    172.99709            106   0.61272708     0.59053822   
       700   0             -3.9754978     -3.9754978     -0.70590889     171.5876             103   0.60027647     0.59119828   
       750   0             -4.246092      -4.246092      -0.69271474     164.96538            106   0.64255907     0.5945454    
       800   0             -4.2860345     -4.2860345     -0.68684781     163.71446            108   0.65968517     0.60115395   
       850   0             -4.2406735     -4.2406735     -0.48389053     162.40291            106   0.65269765     0.60682133   
       900   0             -4.1183941     -4.1183941     -0.65576172     164.32397            105   0.63898163     0.60993081   
       950   0             -4.3564589     -4.3564589     -0.81851336     157.21803            104   0.66150173     0.61396938   
      1000   0             -4.5041748     -4.5041748     -0.74417922     155.18864            106   0.68303967     0.61859054   
      1050   0             -4.4483606     -4.4483606     -0.58385863     157.12368            107   0.68099221     0.62294873   
      1100   0             -4.615112      -4.615112      -0.55736624     151.39005            106   0.70017811     0.62688599   
      1150   0             -4.560943      -4.560943      -0.41145128     150.86792            106   0.7026013      0.63190346   
      1200   0             -4.5696243     -4.5696243     -0.47896516     151.39055            106   0.7001758      0.63534935   
      1250   0             -4.6330898     -4.6330898     -0.42856957     149.88851            106   0.70719228     0.63828181   
      1300   0             -4.4536133     -4.4536133     -0.085951334    151.21966            104   0.68774127     0.64437644   
      1350   0             -4.3297268     -4.3297268     -0.5527555      158.14631            104   0.65761887     0.6489338    
      1400   0             -4.1559098     -4.1559098     -0.51782011     162.21938            103   0.63494263     0.65215085   
      1450   0             -4.210424      -4.210424      -0.46447674     159.19097            102   0.64073985     0.65336281   
      1500   0             -4.1445719     -4.1445719     -0.83695423     169.36705            106   0.62585965     0.65479807   
      1550   0             -4.1898919     -4.1898919     -0.76229618     169.6934             107   0.63054897     0.65709537   
      1600   0             -4.2893492     -4.2893492     -0.50974718     166.48273            107   0.64270932     0.66001674   
      1650   0             -4.2179075     -4.2179075     -0.52908446     166.96765            107   0.64084271     0.66206184   
      1700   0             -4.1641367     -4.1641367     -0.12957989     163.59986            107   0.65403478     0.66447484   
      1750   0             -4.1602012     -4.1602012     -0.79799648     171.93017            110   0.63979464     0.66526959   
      1800   0             -4.1135746     -4.1135746     -0.35172864     168.44676            108   0.64115214     0.66447289   
      1850   0             -4.2056573     -4.2056573     -0.51291825     163.32096            106   0.64902878     0.6633331    
      1900   0             -4.2110497     -4.2110497     -0.95047093     169.5748             109   0.64278418     0.6641097    
      1950   0             -4.3043878     -4.3043878     -0.44773372     164.18291            110   0.66998449     0.66409323   
      2000   0             -4.333914      -4.333914       0.51244096     155.04718            109   0.70301183     0.66359614   
      2050   0             -4.3771787     -4.3771787     -0.94154848     158.66549            105   0.66176962     0.66289281   
      2100   0             -4.3276497     -4.3276497     -0.69469013     158.21388            105   0.66365857     0.66214423   
      2150   0             -4.3070952     -4.3070952     -0.12016841     154.36866            105   0.68018986     0.65959952   
      2200   0             -4.3309948     -4.3309948     -0.18836276     155.32536            105   0.67600035     0.65803136   
      2250   0             -3.9775158     -3.9775158     -1.0106583      164.68306             98   0.59508245     0.65564845   
      2300   0             -3.9959283     -3.9959283     -0.11063547     160.1897             100   0.62425988     0.65149622   
      2350   0             -4.0142365     -4.0142365     -0.39299365     162.33769            102   0.62831989     0.64890024   
      2400   0             -3.8640617     -3.8640617     -0.45017604     163.06578            100   0.61324946     0.64718153   
      2450   0             -4.0341802     -4.0341802     -0.65953556     158.62977             99   0.62409471     0.64658718   
      2500   0             -4.081772      -4.081772      -0.10276806     160.90811            105   0.65254637     0.6471709    
      2550   0             -4.0277427     -4.0277427     -0.33633329     163.92387            103   0.62834047     0.64686933   
      2600   0             -4.2244626     -4.2244626     -0.54459937     161.97075            105   0.64826518     0.64585643   
      2650   0             -3.8508734     -3.8508734     -0.57274964     172.97512            102   0.58968017     0.64522757   
      2700   0             -3.9201872     -3.9201872     -0.1418664      167.57126            103   0.61466387     0.64278163   
      2750   0             -4.0092178     -4.0092178     -0.073854674    165.12149            104   0.62983929     0.64154819   
      2800   0             -4.0541739     -4.0541739     -0.19775647     164.24612            104   0.63319609     0.64011204   
      2850   0             -3.9522579     -3.9522579     -0.29480548     167.66083            104   0.62029991     0.63866536   
      2900   0             -3.9081754     -3.9081754     -0.49255083     174.2603             107   0.61402396     0.63603987   
      2950   0             -3.7473438     -3.7473438     -0.78686102     183.0899             101   0.55164157     0.63318266   
      3000   0             -3.6708414     -3.6708414     -0.35525848     182.04153            102   0.56031171     0.62806853   
      3050   0             -3.6347211     -3.6347211     -0.46940904     183.37105            101   0.55079578     0.62109893   
      3100   0             -3.9032043     -3.9032043     -0.68788636     179.33933            106   0.5910583      0.61618282   
      3150   0             -3.7691562     -3.7691562     -0.89483691     178.93725            103   0.57562078     0.6128744    
      3200   0             -3.859457      -3.859457      -0.32992379     167.34331            101   0.60354968     0.609278     
      3250   0             -4.0023861     -4.0023861     -0.13782441     164.83106            105   0.63701587     0.60810091   
      3300   0             -3.9716391     -3.9716391     -0.32317359     170.1228             106   0.62307932     0.60889871   
      3350   0             -4.143021      -4.143021      -0.37263383     168.55231            108   0.64075063     0.60898987   
      3400   0             -4.1999978     -4.1999978      0.086163473    167.25327            110   0.65768521     0.61023256   
      3450   0             -4.0569508     -4.0569508     -0.310854       175.69885            110   0.62607125     0.61042482   
      3500   0             -4.1314069     -4.1314069     -0.22599785     168.6376             107   0.6344967      0.61009743   
      3550   0             -4.1443169     -4.1443169     -0.4683082      167.18586            107   0.64000628     0.60989952   
      3600   0             -4.2249286     -4.2249286     -0.22375889     161.91089            106   0.65468111     0.61093309   
      3650   0             -4.21066       -4.21066       -0.41258486     167.34628            107   0.63939275     0.61164741   
      3700   0             -4.1632582     -4.1632582     -0.115784       164.94765            107   0.64869066     0.61425509   
      3750   0             -4.3646625     -4.3646625     -1.0002151      169.31684            111   0.65557567     0.61658671   
      3800   0             -4.4437621     -4.4437621     -0.43767325     161.4599             110   0.68128373     0.61926372   
      3850   0             -4.4069111     -4.4069111     -0.49273067     164.85382            111   0.67332378     0.62240858   
      3900   0             -4.2376326     -4.2376326     -0.44203091     169.01215            108   0.63900732     0.62494264   
      3950   0             -4.1208316     -4.1208316     -0.51721805     170.83585            105   0.61462508     0.62628646   
      4000   0             -3.9529644     -3.9529644     -1.1762946      184.35708            107   0.58039539     0.62828712   
      4050   0             -4.1208538     -4.1208538     -0.65221004     172.68368            108   0.62542101     0.63267669   
      4100   0             -4.0667716     -4.0667716     -0.27622597     167.19115            106   0.63400486     0.63516807   
      4150   0             -4.1009117     -4.1009117     -0.19056104     166.00699            107   0.64455117     0.63673373   
      4200   0             -4.2057432     -4.2057432     -0.14859395     161.76019            107   0.66147299     0.63918238   
      4250   0             -4.1263444     -4.1263444     -0.66555855     166.99909            106   0.634734       0.64040379   
      4300   0             -4.014572      -4.014572      -0.17331434     164.30833            104   0.63295634     0.64105444   
      4350   0             -3.9559563     -3.9559563     -0.39376373     169.72247            104   0.61276506     0.64119969   
      4400   0             -3.9413539     -3.9413539     -0.10606772     166.6382             104   0.6241066      0.63939927   
      4450   0             -3.9763872     -3.9763872     -0.26356866     166.53957            105   0.6304808      0.63939493   
      4500   0             -4.0862636     -4.0862636     -0.50297642     167.94981            108   0.64304927     0.63990139   
      4550   0             -4.0306098     -4.0306098     -0.63929111     168.24692            106   0.63002637     0.64050012   
      4600   0             -4.1361928     -4.1361928      0.16160468     161.61628            107   0.66206203     0.64008438   
      4650   0             -4.0286928     -4.0286928     -1.1141619      173.3947             105   0.60555486     0.64015087   
      4700   0             -4.0359764     -4.0359764     -0.42027517     168.17899            103   0.61244274     0.63935504   
      4750   0             -3.8745465     -3.8745465     -0.49106136     174.87798            106   0.60613692     0.63680879   
      4800   0             -3.7394621     -3.7394621     -0.14890951     179.53589            106   0.5904112      0.63264814   
      4850   0             -3.5778119     -3.5778119     -0.34570429     177.9183              99   0.55643518     0.62698065   
      4900   0             -3.8648796     -3.8648796     -0.670724       172.56883            104   0.60265807     0.62307918   
      4950   0             -4.1242427     -4.1242427     -0.80517129     162.44042            103   0.63407865     0.62254346   
      5000   0             -4.1739962     -4.1739962     -0.080880208    152.9895             101   0.66017602     0.62456489   
      5050   0             -4.2578718     -4.2578718     -0.19008516     152.42783            102   0.66916915     0.62623746   
      5100   0             -4.3068313     -4.3068313     -0.64198871     157.43383            103   0.6542431      0.62763002   
      5150   0             -4.1966124     -4.1966124     -0.50968274     156.86044            102   0.65025957     0.62869656   
      5200   0             -4.0589325     -4.0589325     -0.29532858     157.62762            100   0.63440657     0.62851933   
      5250   0             -4.0338461     -4.0338461     -0.68168532     161.18331            100   0.62041161     0.62738389   
      5300   0             -3.9693261     -3.9693261     -0.83678988     168.76834            101   0.59845347     0.6273291    
      5350   0             -3.9707467     -3.9707467     -0.58759619     165.04758            100   0.60588588     0.6267698    
      5400   0             -3.9481915     -3.9481915     -1.0191899      167.72962            102   0.60812157     0.62761501   
      5450   0             -4.2577148     -4.2577148     -0.028189688    152.54651            102   0.66864852     0.6281962    
      5500   0             -4.3602668     -4.3602668     -0.25899012     153.4635             104   0.67768555     0.6295817    
      5550   0             -4.2724694     -4.2724694     -0.37291814     156.37147            102   0.65229291     0.63049937   
      5600   0             -4.3295613     -4.3295613     -0.73866746     153.72159            102   0.66353724     0.63134919   
      5650   0             -4.2969591     -4.2969591     -0.50345574     152.81982            102   0.66745269     0.63283608   
      5700   0             -4.3492441     -4.3492441     -0.19985316     146.88846            100   0.68078866     0.63488547   
      5750   0             -4.3970227     -4.3970227     -0.74539527     153.49776            102   0.66450481     0.63793313   
      5800   0             -4.5084957     -4.5084957     -0.46169326     149.30039            103   0.68988433     0.64188339   
      5850   0             -4.5018159     -4.5018159      0.38642176     143.92495            103   0.71565077     0.64820264   
      5900   0             -4.3954311     -4.3954311     -0.18725695     147.9908             101   0.68247486     0.65295882   
      5950   0             -4.2034371     -4.2034371     -1.007975       158.63487            101   0.63668219     0.65496991   
      6000   0             -4.2361302     -4.2361302     -0.88285678     154.29333             99   0.641635       0.65514376   
      6050   0             -4.4724331     -4.4724331     -0.22184091     144.42742             99   0.68546539     0.65618899   
      6100   0             -4.2768554     -4.2768554     -0.54887391     151.39119            100   0.66054041     0.65704328   
      6150   0             -4.4360157     -4.4360157     -1.095556       152.22392            100   0.656927       0.65787582   
      6200   0             -4.4260185     -4.4260185     -0.12165397     146.50948            100   0.68254968     0.65969054   
      6250   0             -4.4225567     -4.4225567     -0.36843131     149.94812            102   0.68023528     0.66281853   
      6300   0             -4.307704      -4.307704       0.1540345      149.60651            102   0.6817885      0.6645387    
      6350   0             -3.9695732     -3.9695732     -0.37213612     161.28657            100   0.62001444     0.66591      
      6400   0             -3.8920693     -3.8920693     -0.57795198     165.61276             99   0.59778001     0.66511613   
      6450   0             -3.8490209     -3.8490209     -0.5329559      164.34111             96   0.58415087     0.66327946   
      6500   0             -4.2923211     -4.2923211     -0.1705672      149.43035             99   0.662516       0.66128373   
      6550   0             -4.3538776     -4.3538776      0.097955273    148.44957            102   0.68710205     0.66177373   
      6600   0             -4.2537721     -4.2537721     -0.64763417     156.13323            103   0.659693       0.66210888   
      6650   0             -4.3646541     -4.3646541     -0.52475206     153.05883            103   0.67294388     0.66234803   
      6700   0             -4.3841396     -4.3841396     -0.32221631     152.28318            104   0.68293819     0.66288003   
      6750   0             -4.3764115     -4.3764115     -0.22840167     149.90727            102   0.68042061     0.66326814   
      6800   0             -4.5599193     -4.5599193     -0.37795843     146.6293             102   0.69563179     0.66362491   
      6850   0             -4.4804623     -4.4804623     -0.78249404     151.49096            102   0.67330751     0.6632123    
      6900   0             -4.4466238     -4.4466238     -0.29143914     148.41489            101   0.68052471     0.66338372   
      6950   0             -4.5354253     -4.5354253     -0.96512504     151.28328            103   0.68084193     0.66450514   
      7000   0             -4.5610478     -4.5610478     -0.29397213     145.95529            103   0.70569554     0.66675777   
      7050   0             -4.6432234     -4.6432234     -0.19790192     145.24967            104   0.7160085      0.66793924   
      7100   0             -4.5911491     -4.5911491     -0.84061581     151.96877            106   0.69751173     0.66999447   
      7150   0             -4.6249163     -4.6249163     -0.41178472     148.2819             105   0.70811072     0.67201135   
      7200   0             -4.6184527     -4.6184527     -0.73622528     150.03677            104   0.69316341     0.67322786   
      7250   0             -4.4139824     -4.4139824     -0.71136257     156.5234             106   0.67721505     0.67367592   
      7300   0             -4.370886      -4.370886      -0.015527585    152.88858            105   0.68677464     0.67432219   
      7350   0             -4.3104845     -4.3104845     -0.48456572     157.19641            106   0.67431564     0.67607315   
      7400   0             -4.2834513     -4.2834513     -1.0117973      161.86309            104   0.64251831     0.67861651   
      7450   0             -4.2365648     -4.2365648     -0.53374171     157.14875            102   0.64906656     0.68133009   
      7500   0             -4.0664905     -4.0664905     -0.1326372      157.09018            101   0.6429428      0.68276625   
      7550   0             -3.8840996     -3.8840996     -0.43927437     159.17984             95   0.59680924     0.68023222   
      7600   0             -3.775196      -3.775196      -0.74635337     163.56208             94   0.57470534     0.67688772   
      7650   0             -3.9943135     -3.9943135     -0.1166512      155.72543             98   0.62931275     0.67328664   
      7700   0             -3.8887939     -3.8887939     -0.081400427    163.14122            100   0.61296587     0.66937715   
      7750   0             -3.7377658     -3.7377658     -0.34700814     166.55666             99   0.59439233     0.66501527   
      7800   0             -3.9442714     -3.9442714     -0.30597521     162.44224            102   0.62791549     0.66174799   
      7850   0             -3.9623801     -3.9623801     -0.58883003     165.85733            104   0.62704493     0.65814732   
      7900   0             -4.1009922     -4.1009922     -0.64829231     164.18331            105   0.63952907     0.65569071   
      7950   0             -4.0257167     -4.0257167     -0.58475594     167.48531            106   0.63289132     0.65305283   
      8000   0             -3.9733509     -3.9733509     -0.86318471     172.57992            105   0.60841377     0.64946836   
      8050   0             -4.0533678     -4.0533678     -0.78734122     166.37817            104   0.62508201     0.64611924   
      8100   0             -3.9442696     -3.9442696     -0.094168976    162.95366            102   0.62594483     0.64157714   
      8150   0             -4.0318372     -4.0318372     -0.53429582     160.04798            100   0.62481264     0.63695358   
      8200   0             -4.1077155     -4.1077155     -0.11699656     155.00855             99   0.63867445     0.63341333   
      8250   0             -4.0473609     -4.0473609     -0.30231846     161.75105            102   0.63059869     0.62975763   
      8300   0             -4.0636584     -4.0636584     -0.65686756     164.86219            104   0.63082991     0.62732002   
      8350   0             -3.9905327     -3.9905327     -0.26137649     160.14162             99   0.61820282     0.6252322    
      8400   0             -4.1768054     -4.1768054     -0.99033439     165.1642             103   0.62362181     0.623612     
      8450   0             -4.3043798     -4.3043798     -0.85718249     163.67173            107   0.6537476      0.62370259   
      8500   0             -4.2917893     -4.2917893     -0.72035837     159.53303            106   0.66443922     0.62443413   
      8550   0             -4.2962717     -4.2962717     -0.41947802     159.22515            106   0.66572399     0.62645095   
      8600   0             -4.1494736     -4.1494736     -0.33647305     162.37543            105   0.64664957     0.62878498   
      8650   0             -4.0266793     -4.0266793     -0.62524435     171.61617            107   0.62348439     0.63004309   
      8700   0             -4.1184007     -4.1184007     -0.32115079     163.8621             105   0.6407827      0.63112635   
      8750   0             -4.1060714     -4.1060714     -0.0030805602   164.68164            106   0.64366615     0.6333957    
      8800   0             -4.0310077     -4.0310077     -0.57348131     173.32725            109   0.62886824     0.63386484   
      8850   0             -4.0924655     -4.0924655     -0.43026752     169.33809            106   0.62596666     0.63421568   
      8900   0             -3.9813639     -3.9813639     -0.53847437     167.39467            104   0.62128619     0.63366806   
      8950   0             -4.078851      -4.078851      -0.3064943      163.89049            104   0.63457006     0.63348726   
      9000   0             -4.1156553     -4.1156553     -0.72091238     170.91306            107   0.6260493      0.63357933   
      9050   0             -4.3171505     -4.3171505     -0.82783478     166.30242            107   0.64340617     0.63480905   
      9100   0             -4.179721      -4.179721      -0.8478529      168.12376            107   0.6364359      0.63592613   
      9150   0             -4.2337882     -4.2337882     -0.2796371      160.62451            107   0.66614989     0.63808559   
      9200   0             -4.1968323     -4.1968323     -0.17380941     163.37422            108   0.66105899     0.63893069   
      9250   0             -4.3357738     -4.3357738     -0.44242797     162.58296            109   0.67042695     0.64056791   
      9300   0             -4.1789342     -4.1789342     -0.78443239     165.04845            105   0.63617682     0.64158691   
      9350   0             -4.0826403     -4.0826403     -0.29622413     164.62374            103   0.62566916     0.64134166   
      9400   0             -4.0340006     -4.0340006     -1.0038227      177.13427            108   0.60970698     0.64142754   
      9450   0             -4.0868711     -4.0868711     -0.59079666     173.19789            110   0.63511167     0.64003722   
      9500   0             -4.0510919     -4.0510919     -0.8774914      175.14635            107   0.61091767     0.63871707   
      9550   0             -3.8475252     -3.8475252     -0.83460272     177.33772            103   0.58081272     0.63594637   
      9600   0             -3.9427539     -3.9427539     -0.55166602     163.15278             99   0.60679323     0.63316403   
      9650   0             -4.2346177     -4.2346177     -0.31457003     155.34698            103   0.66303188     0.63326093   
      9700   0             -4.1969261     -4.1969261      0.11688688     151.55801            101   0.66641149     0.63438283   
      9750   0             -4.0200709     -4.0200709     -0.016042191    154.92336             98   0.63257085     0.63415247   
      9800   0             -4.1107262     -4.1107262     -0.27844542     157.68714            101   0.64050878     0.6338092    
      9850   0             -4.0885478     -4.0885478     -1.0365637      166.65183            103   0.61805503     0.63466681   
      9900   0             -4.3682306     -4.3682306     -0.4079112      157.84983            106   0.67152434     0.63650695   
      9950   0             -4.3199798     -4.3199798     -1.1391907      165.37797            107   0.64700273     0.63877248   
     10000   0             -4.3194909     -4.3194909     -0.019688162    157.05272            107   0.68129987     0.64073183   
     10050   0             -4.3581556     -4.3581556     -0.65075226     161.81168            107   0.66126253     0.64132059   
     10100   0             -4.4374073     -4.4374073     -0.07332267     155.18244            106   0.68306697     0.6428147    
     10150   0             -4.1985993     -4.1985993     -0.89970231     167.1044             106   0.63433397     0.64235153   
     10200   0             -4.0644034     -4.0644034     -0.37069748     168.6725             107   0.6343654      0.64186657   
     10250   0             -4.2609085     -4.2609085     -0.67387553     161.29014            105   0.65100074     0.64153833   
Loop time of 47.5475 on 4 procs for 10000 steps with 105 atoms

Performance: 90856.461 tau/day, 210.316 timesteps/s, 22.083 katom-step/s
99.2% CPU use with 4 MPI tasks x 1 OpenMP threads

MPI task timing breakdown:
Section |  min time  |  avg time  |  max time  |%varavg| %total
---------------------------------------------------------------
Pair    | 0.14716    | 0.16666    | 0.18269    |   3.1 |  0.35
Neigh   | 0.52067    | 0.5479     | 0.58209    |   3.1 |  1.15
Comm    | 0.36423    | 0.40735    | 0.4595     |   5.8 |  0.86
Output  | 0.0035365  | 0.0037019  | 0.0041287  |   0.4 |  0.01
Modify  | 46.389     | 46.394     | 46.399     |   0.1 | 97.57
Other   |            | 0.02825    |            |       |  0.06

Nlocal:          26.25 ave          29 max          22 min
Histogram: 1 0 0 0 0 0 0 2 0 1
Nghost:          469.5 ave         486 max         449 min
Histogram: 1 0 0 0 0 1 1 0 0 1
Neighs:         760.75 ave         807 max         731 min
Histogram: 1 1 0 0 1 0 0 0 0 1

Total # of neighbors = 3043
Ave neighs/atom = 28.980952
Neighbor list builds = 495240
Dangerous builds = 0
Total wall time: 0:00:47
