LAMMPS (10 Sep 2025 - Development - patch_10Sep2025-574-g1d254e949f-modified)
Processor partition = 0
OMP_NUM_THREADS environment is not set. Defaulting to 1 thread.
  using 1 OpenMP thread(s) per MPI task
# 3d Lennard-Jones melt to vapor-liquid mixture GEMC
# mpirun -np 5 ./lmp -in in.gemc.lj -p 1 4

variable        temp index 1.0
variable        ntranslate index 10
variable        nexchange index 10
variable        nvolume index 10
variable        displace index 0.5
variable        max_dlogvolratio index 0.5
variable        nsteps index 10000

units           lj
atom_style      atomic

# initialize gas state in partition 1

partition       yes 1 lattice fcc 0.05
lattice fcc 0.05
Lattice spacing in x,y,z = 4.3088694 4.3088694 4.3088694
partition       yes 1 region box block 0 1 0 1 0 1
region box block 0 1 0 1 0 1

# initialize liquid state in partition 2

partition       yes 2 lattice fcc 0.6
partition       yes 2 region box block 0 3 0 3 0 3

create_box      1 box
Created orthogonal box = (0 0 0) to (4.3088694 4.3088694 4.3088694)
  1 by 1 by 1 MPI processor grid
create_atoms    1 box
Created 4 atoms
  using lattice units in orthogonal box = (0 0 0) to (4.3088694 4.3088694 4.3088694)
  create_atoms CPU = 0.000 seconds
mass            1 1.0

velocity        all create 3.0 87287 loop geom

pair_style      lj/cut 2.5
pair_coeff      1 1 1.0 1.0 2.5

neighbor        0.3 bin
neigh_modify    every 1 delay 5 check yes

fix             1 all nve

thermo          50
thermo_style    custom step temp pe etotal press vol atoms density
run             250
Generated 0 of 0 mixed pair_coeff terms from geometric mixing rule
Neighbor list info ...
  update: every = 1 steps, delay = 5 steps, check = yes
  max neighbors/atom: 2000, page size: 100000
  master list distance cutoff = 2.8
  ghost atom cutoff = 2.8
  binsize = 1.4, bins = 4 4 4
  1 neighbor lists, perpetual/occasional/extra = 1 0 0
  (1) pair lj/cut, perpetual
      attributes: half, newton on
      pair build: half/bin/atomonly/newton
      stencil: half/bin/3d
      bin: standard
Per MPI rank memory allocation (min/avg/max) = 3.059 | 3.059 | 3.059 Mbytes
   Step          Temp          PotEng         TotEng         Press          Volume        Atoms       Density    
         0   3              0              3.375          0.1125         80                     4   0.05         
        50   3.0165043     -0.026598173    3.3669691      0.11051182     80                     4   0.05         
       100   3.0488308     -0.071119653    3.358815       0.10745073     80                     4   0.05         
       150   3.1012973     -0.12610199     3.3628575      0.10509185     80                     4   0.05         
       200   3.2255871     -0.27398268     3.3548028      0.14486233     80                     4   0.05         
       250   3.1160493     -0.15079937     3.354756       0.10385735     80                     4   0.05         
Loop time of 0.000309243 on 1 procs for 250 steps with 4 atoms

Performance: 349239918.123 tau/day, 808425.736 timesteps/s, 3.234 Matom-step/s
98.3% CPU use with 1 MPI tasks x 1 OpenMP threads

MPI task timing breakdown:
Section |  min time  |  avg time  |  max time  |%varavg| %total
---------------------------------------------------------------
Pair    | 3.8848e-05 | 3.8848e-05 | 3.8848e-05 |   0.0 | 12.56
Neigh   | 5.2555e-05 | 5.2555e-05 | 5.2555e-05 |   0.0 | 16.99
Comm    | 0.00010122 | 0.00010122 | 0.00010122 |   0.0 | 32.73
Output  | 1.5381e-05 | 1.5381e-05 | 1.5381e-05 |   0.0 |  4.97
Modify  | 4.4929e-05 | 4.4929e-05 | 4.4929e-05 |   0.0 | 14.53
Other   |            | 5.631e-05  |            |       | 18.21

Nlocal:              4 ave           4 max           4 min
Histogram: 1 0 0 0 0 0 0 0 0 0
Nghost:             52 ave          52 max          52 min
Histogram: 1 0 0 0 0 0 0 0 0 0
Neighs:              7 ave           7 max           7 min
Histogram: 1 0 0 0 0 0 0 0 0 0

Total # of neighbors = 7
Ave neighs/atom = 1.75
Neighbor list builds = 31
Dangerous builds = 0
unfix           1

velocity        all create 0.0 87287 loop geom

#   args: nevery ntranslate nexchange nvolume box_temp displace max_dlogvolratio seed
fix              2 all gemc 1 ${ntranslate} ${nexchange} ${nvolume} ${temp} ${displace} ${max_dlogvolratio} 29494
fix              2 all gemc 1 10 ${nexchange} ${nvolume} ${temp} ${displace} ${max_dlogvolratio} 29494
fix              2 all gemc 1 10 10 ${nvolume} ${temp} ${displace} ${max_dlogvolratio} 29494
fix              2 all gemc 1 10 10 10 ${temp} ${displace} ${max_dlogvolratio} 29494
fix              2 all gemc 1 10 10 10 1.0 ${displace} ${max_dlogvolratio} 29494
fix              2 all gemc 1 10 10 10 1.0 0.5 ${max_dlogvolratio} 29494
fix              2 all gemc 1 10 10 10 1.0 0.5 0.5 29494

variable        mydensity equal density
fix             3 all ave/time 1 50 50 v_mydensity ave window 20
thermo_style    custom step temp pe etotal press vol atoms density f_3

run             ${nsteps}
run             10000
WARNING: No fixes with time integration, atoms won't move
For more information see https://docs.lammps.org/err0028 (src/verlet.cpp:60)
Generated 0 of 0 mixed pair_coeff terms from geometric mixing rule
0 atoms in group FixGEMC:gemc_exclusion_group:2
Per MPI rank memory allocation (min/avg/max) = 3.059 | 3.059 | 3.059 Mbytes
   Step          Temp          PotEng         TotEng         Press          Volume        Atoms       Density          f_3      
       250   0             -0.15079937    -0.15079937    -0.012994499    80                     4   0.05           0            
       300   0             -0.18257033    -0.18257033    -0.00031397613  156.73014              6   0.038282362    0.044270378  
       350   0             -0.04616605    -0.04616605    -0.0034662534   131.16262              5   0.038120618    0.040339652  
       400   0             -0.1773061     -0.1773061     -0.010390956    159.94415              5   0.031260913    0.037557418  
       450   0              0              0              0              159.98915              3   0.018751272    0.032701806  
       500   0             -0.093539492   -0.093539492   -0.0044972367   159.95432              4   0.02500714     0.031537063  
       550   0             -0.054408355   -0.054408355   -0.0032796282   159.9567               5   0.031258459    0.030219599  
       600   0             -0.46260072    -0.46260072     0.0061614336   159.80887              5   0.031287374    0.030388402  
       650   0             -0.066557855   -0.066557855   -0.0047980997   159.96079              6   0.037509192    0.031889492  
       700   0             -0.40703556    -0.40703556    -0.014320795    159.97154              9   0.056260006    0.03393215   
       750   0             -0.33199413    -0.33199413    -0.013335524    159.68179              6   0.037574728    0.035436243  
       800   0             -0.15524863    -0.15524863    -0.0073092336   159.99103              4   0.025001402    0.034953823  
       850   0             -0.28565384    -0.28565384    -0.014333743    159.99729              6   0.037500635    0.034291072  
       900   0             -0.42133457    -0.42133457    -0.0080932491   159.99294              7   0.043751932    0.034730754  
       950   0             -0.63486622    -0.63486622    -0.0035041853   159.94778              8   0.050016323    0.035420051  
      1000   0             -0.72362691    -0.72362691    -0.032710833    159.9513               6   0.037511418    0.035851795  
      1050   0             -0.10134995    -0.10134995    -0.0059036501   159.78033              5   0.031292962    0.035660857  
      1100   0             -0.22472321    -0.22472321    -0.0089838213   159.74187              6   0.037560596    0.035744831  
      1150   0             -0.26792042    -0.26792042    -0.0060986239   159.51167              6   0.037614802    0.03557905   
      1200   0             -0.29544601    -0.29544601    -0.002283137    159.47348              6   0.037623811    0.035693691  
      1250   0             -0.28769044    -0.28769044    -0.012271069    159.77802              6   0.0375521      0.035940702  
      1300   0             -0.64555648    -0.64555648    -0.02926347     159.46861              8   0.050166613    0.035819675  
      1350   0             -0.34715545    -0.34715545    -0.022267915    151.89563              8   0.052667741    0.036419702  
      1400   0             -0.5116567     -0.5116567     -0.024395517    156.02156              9   0.057684334    0.03751639   
      1450   0             -0.39647569    -0.39647569     0.0045953199   152.78831             10   0.065450032    0.040060534  
      1500   0             -0.57451127    -0.57451127    -0.0059941671   158.39335              6   0.037880377    0.041786005  
      1550   0             -0.062990234   -0.062990234   -0.0038190503   159.63481              5   0.03132149     0.04256649   
      1600   0             -0.52293371    -0.52293371     0.012051201    159.95822              5   0.031258162    0.042485005  
      1650   0             -0.61634209    -0.61634209    -0.020879333    159.92964              5   0.031263749    0.041859756  
      1700   0             -0.0074901058  -0.0074901058  -0.00046605638  159.94674              5   0.031260406    0.041090546  
      1750   0              0              0              0              159.5698               2   0.0125337      0.039781374  
      1800   0             -0.0090061238  -0.0090061238  -0.00044787332  159.39362              4   0.025095107    0.0392692    
      1850   0             -0.34044254    -0.34044254    -0.020768232    159.55563              6   0.03760444     0.039084363  
      1900   0             -0.028578205   -0.028578205   -0.0010703459   156.61058              3   0.019155794    0.038220915  
      1950   0              0              0              0              158.04043              2   0.01265499     0.036892378  
      2000   0             -0.0061901926  -0.0061901926  -0.00023166077  159.57429              3   0.018800021    0.03575183   
      2050   0             -0.43327182    -0.43327182    -0.023740562    157.4347               7   0.044462878    0.035833763  
      2100   0             -0.19232158    -0.19232158     0.068737711    159.29475              7   0.043943696    0.036148262  
      2150   0             -0.5405903     -0.5405903     -0.023846544    159.94129              7   0.04376606     0.036639157  
      2200   0             -0.31688312    -0.31688312    -0.015469766    159.98075              7   0.043755264    0.03708279   
      2250   0             -0.45486333    -0.45486333    -0.029720145    158.35718             14   0.08840774     0.038573207  
      2300   0             -0.83653706    -0.83653706    -0.004800599    159.98418             12   0.075007415    0.040674573  
      2350   0             -0.46184011    -0.46184011     0.033579124    159.99858             10   0.062500555    0.041498037  
      2400   0             -0.4050008     -0.4050008     -0.034444529    159.99788             12   0.075000993    0.042220494  
      2450   0             -0.77785914    -0.77785914    -0.032958158    159.99968             13   0.081250161    0.04260086   
      2500   0             -1.0031978     -1.0031978     -0.034439784    159.99993              7   0.04375002     0.042937739  
      2550   0             -0.27427298    -0.27427298    -0.0042067821   159.99974              9   0.056250092    0.043463142  
      2600   0             -0.38172378    -0.38172378     0.012155412    159.99994              7   0.043750017    0.044680825  
      2650   0             -0.46126781    -0.46126781    -0.034027282    159.9999              10   0.062500037    0.045992472  
      2700   0             -0.33917881    -0.33917881    -0.0047646182   159.9863               9   0.056254817    0.047423087  
      2750   0             -0.53234011    -0.53234011     0.0030982987   159.96106              8   0.050012173    0.049008936  
      2800   0             -0.24437176    -0.24437176    -0.014361319    159.86891              8   0.050040998    0.050166102  
      2850   0             -0.26297467    -0.26297467    -0.0025560295   159.99604              8   0.050001238    0.051482465  
      2900   0             -0.30065591    -0.30065591    -0.0046296548   159.9871               5   0.031252519    0.052539419  
      2950   0             -0.57783631    -0.57783631    -0.015755055    159.99885             11   0.068750493    0.053873934  
      3000   0             -0.4613154     -0.4613154     -0.011316883    159.96607             10   0.062513257    0.056069851  
      3050   0             -0.56406136    -0.56406136    -0.010594998    159.99172             11   0.06875356     0.058511337  
      3100   0             -0.10668494    -0.10668494    -0.0073157195   159.98608              6   0.037503263    0.058586272  
      3150   0             -0.48778886    -0.48778886    -0.016439828    159.97932              9   0.056257272    0.058863961  
      3200   0             -0.33789068    -0.33789068    -0.006351496    159.98148             11   0.068757957    0.059832713  
      3250   0             -0.24013386    -0.24013386    -0.018201656    159.9508               7   0.043763457    0.058904677  
      3300   0             -0.35871121    -0.35871121    -0.007090501    159.96597              6   0.037507977    0.057055009  
      3350   0             -0.078975575   -0.078975575   -0.0038162068   159.98366              4   0.025002554    0.055273906  
      3400   0              0              0              0              159.92626              2   0.012505764    0.052955231  
      3450   0              0              0              0              157.44003              2   0.012703249    0.049801479  
      3500   0             -0.25869423    -0.25869423    -0.011613255    159.2632               5   0.031394573    0.047465859  
      3550   0             -0.11753395    -0.11753395    -0.006557213    153.9998               5   0.032467574    0.046495879  
      3600   0             -0.57688631    -0.57688631    -0.023773479    159.21204              6   0.037685591    0.04542002   
      3650   0             -0.14058695    -0.14058695    -0.0082389538   157.36393              5   0.031773481    0.044112339  
      3700   0             -0.28654484    -0.28654484    -0.01283657     153.30623              5   0.03261446     0.041757132  
      3750   0              0              0              0              159.17335              1   0.0062824588   0.039866706  
      3800   0              0              0              0              151.2322               2   0.013224697    0.038163844  
      3850   0              0              0              0              158.13174              1   0.0063238413   0.036232593  
      3900   0             -0.18168519    -0.18168519    -0.0081393125   154.8033               4   0.025839242    0.034754481  
      3950   0             -0.200152      -0.200152      -0.011292046    159.3708               7   0.043922727    0.033823182  
      4000   0             -0.54460126    -0.54460126    -0.023361499    159.76029              5   0.031296889    0.032537324  
      4050   0             -0.53824201    -0.53824201     0.008195261    159.99421              4   0.025000905    0.029888365  
      4100   0             -0.40651763    -0.40651763     0.00031225759  159.99871              6   0.037500303    0.029394633  
      4150   0             -0.18715643    -0.18715643    -0.0093586376   159.99996              5   0.031250008    0.028863017  
      4200   0             -0.042543274   -0.042543274   -0.0026160474   159.99992              5   0.031250016    0.027056521  
      4250   0             -0.1728191     -0.1728191     -0.011687799    159.99978              6   0.037500051    0.026299947  
      4300   0             -0.3359338     -0.3359338     -0.0096791369   159.99594              8   0.050001267    0.026074535  
      4350   0             -0.3592969     -0.3592969      0.02473724     159.72452              8   0.050086237    0.026681179  
      4400   0             -0.15641822    -0.15641822    -0.014051936    159.02258              8   0.050307322    0.028278163  
      4450   0             -0.29078526    -0.29078526    -0.01594161     159.92097              7   0.04377162     0.029685814  
      4500   0             -0.3033554     -0.3033554     -0.0048392462   158.45099              4   0.025244399    0.03041724   
      4550   0             -0.1830101     -0.1830101     -0.012282076    153.38809              6   0.039116465    0.030768783  
      4600   0             -0.20159235    -0.20159235    -0.0091032416   158.613                5   0.031523267    0.031099013  
      4650   0             -0.27414986    -0.27414986    -0.021429736    159.96527              7   0.0437595      0.03169939   
      4700   0             -0.17087072    -0.17087072    -0.016388544    159.98205              9   0.056256311    0.033223907  
      4750   0             -0.61795074    -0.61795074    -0.019868289    159.99913              6   0.037500205    0.034570351  
      4800   0             -0.29705766    -0.29705766     0.015105341    159.9988               6   0.037500281    0.036259299  
      4850   0             -0.64384349    -0.64384349     0.0026992465   159.96845             13   0.081266026    0.03849068   
      4900   0             -0.33890208    -0.33890208     0.011095029    159.95756              8   0.050013266    0.040838067  
      4950   0             -0.70967303    -0.70967303    -0.025601456    159.91614              9   0.056279496    0.042457621  
      5000   0             -0.41135472    -0.41135472    -0.010765178    159.9093              11   0.068788996    0.043713512  
      5050   0             -0.26955802    -0.26955802    -0.028853902    159.98884             10   0.062504359    0.045425366  
      5100   0             -0.38830168    -0.38830168    -0.022031105    159.98851              9   0.056254039    0.046569212  
      5150   0             -0.50442256    -0.50442256     0.0094428309   159.92844             10   0.062527964    0.047682313  
      5200   0             -0.34472873    -0.34472873    -0.044222613    159.02213             12   0.075461194    0.049727014  
      5250   0             -0.4895066     -0.4895066     -0.056388893    159.97823             12   0.075010205    0.051914115  
      5300   0             -0.35119817    -0.35119817    -0.013180873    159.97992             11   0.068758627    0.05348629   
      5350   0             -0.56799561    -0.56799561    -0.044476743    159.89993             12   0.075046936    0.055049683  
      5400   0             -0.3805372     -0.3805372     -0.016952648    159.75943             10   0.062594113    0.055580135  
      5450   0             -0.31456346    -0.31456346     0.044637389    159.92825             10   0.06252804     0.056915032  
      5500   0             -0.27515571    -0.27515571    -0.018398281    158.55848              8   0.050454571    0.057793878  
      5550   0             -0.60955204    -0.60955204     0.095522055    159.9196              10   0.062531422    0.058675178  
      5600   0             -0.33629372    -0.33629372    -0.029810426    159.60943             10   0.06265294     0.059881832  
      5650   0             -0.56109576    -0.56109576    -0.049371606    159.95279             10   0.062518446    0.060930626  
      5700   0             -0.43305304    -0.43305304    -0.0047309164   159.99823             12   0.075000828    0.062174118  
      5750   0             -0.32069387    -0.32069387    -0.0079215609   159.9541              10   0.062517934    0.06330029   
      5800   0             -0.5061911     -0.5061911     -0.027158669    159.99589              9   0.056251445    0.064375544  
      5850   0             -0.44975645    -0.44975645    -0.00037070173  159.99713              9   0.056251008    0.064218932  
      5900   0             -0.52819507    -0.52819507    -0.055369598    159.99951             11   0.068750209    0.064318337  
      5950   0             -0.57707763    -0.57707763    -0.039597081    159.99978             11   0.068750096    0.064836317  
      6000   0             -0.51151597    -0.51151597     0.023313441    160                   13   0.081250002    0.065759856  
      6050   0             -0.65547241    -0.65547241    -0.03722847     160                   13   0.081250001    0.066014952  
      6100   0             -0.32858896    -0.32858896     0.014466143    160                   12   0.075          0.066777233  
      6150   0             -0.81833885    -0.81833885    -0.045044551    160                   12   0.075          0.067814126  
      6200   0             -0.43546393    -0.43546393    -0.016116844    160                   12   0.075          0.068025674  
      6250   0             -0.36950348    -0.36950348    -0.035963341    160                   10   0.062500001    0.067032323  
      6300   0             -0.45240944    -0.45240944    -0.02782346     160                   10   0.0625         0.066660118  
      6350   0             -0.43356241    -0.43356241    -0.044947953    160                   12   0.075          0.066695997  
      6400   0             -0.55867225    -0.55867225     0.012393537    160                   13   0.08125        0.067180943  
      6450   0             -0.51653276    -0.51653276     0.013375282    160                   16   0.1            0.068167139  
      6500   0             -0.97576211    -0.97576211     0.013805401    160                   13   0.08125        0.069992481  
      6550   0             -0.48663766    -0.48663766    -0.03264806     160                   10   0.0625         0.070729618  
      6600   0             -0.36765113    -0.36765113    -0.010884183    160                    9   0.05625        0.070687333  
      6650   0             -0.65530495    -0.65530495     0.014809482    160                    9   0.05625        0.070145839  
      6700   0             -0.21357634    -0.21357634    -0.013547146    160                    8   0.05           0.069095462  
      6750   0             -0.37070622    -0.37070622    -0.02812794     160                   10   0.0625         0.068550439  
      6800   0             -0.43947425    -0.43947425    -0.011765237    160                   10   0.0625         0.068706378  
      6850   0             -0.44189996    -0.44189996    -0.010118442    160                   10   0.0625         0.069206292  
      6900   0             -0.59717804    -0.59717804     0.018516772    160                   11   0.06875        0.06957501   
      6950   0             -0.27592264    -0.27592264    -0.015500126    160                    9   0.05625        0.069356251  
      7000   0             -0.11834739    -0.11834739    -0.012908147    160                    9   0.05625        0.06814375   
      7050   0             -0.31627453    -0.31627453     0.013037937    160                    8   0.05           0.06740625   
      7100   0             -0.37128006    -0.37128006    -0.011797661    160                    6   0.0375         0.065825     
      7150   0             -0.086510386   -0.086510386   -0.0072114787   160                    7   0.04375        0.06385      
      7200   0             -0.7946355     -0.7946355     -0.036245251    160                    8   0.05           0.06233125   
      7250   0             -0.16121557    -0.16121557    -0.011085724    160                    6   0.0375         0.061775     
      7300   0             -0.78175861    -0.78175861    -0.041513114    160                    7   0.04375        0.06075625   
      7350   0             -0.22907555    -0.22907555     0.0003881944   159.99999              6   0.037500002    0.05880625   
      7400   0             -0.4158619     -0.4158619     -0.012578726    159.99987              8   0.05000004     0.057456251  
      7450   0             -0.29734497    -0.29734497    -0.030781785    159.99994             10   0.062500022    0.055737503  
      7500   0             -0.47118124    -0.47118124    -0.029218345    159.99988             11   0.068750051    0.054431254  
      7550   0             -0.74512921    -0.74512921    -0.094924033    159.99986             17   0.10625009     0.055168759  
      7600   0             -0.76186027    -0.76186027    -0.064217768    159.99995             18   0.11250003     0.057025012  
      7650   0             -0.5759754     -0.5759754     -0.028551357    159.99989             14   0.087500059    0.059431266  
      7700   0             -0.43493515    -0.43493515    -0.045493799    159.99354             12   0.075003029    0.061137566  
      7750   0             -0.72736055    -0.72736055     0.019781666    159.98332             13   0.081258469    0.062850276  
      7800   0             -0.70204308    -0.70204308     0.036636565    159.89335             10   0.062541688    0.062861938  
      7850   0             -0.22521109    -0.22521109    -0.019169819    159.9963               8   0.050001157    0.06249335   
      7900   0             -0.24869628    -0.24869628     0.0090559933   159.99167              7   0.043752279    0.061555965  
      7950   0              0.012612697    0.012612697    0.06004889     159.99977              6   0.037500054    0.06053102   
      8000   0             -0.23325867    -0.23325867    -0.015636053    160                    7   0.043750001    0.059768521  
      8050   0             -0.14324395    -0.14324395    -0.012576269    160                    8   0.050000001    0.059049771  
      8100   0             -0.83367639    -0.83367639    -0.038541139    160                   10   0.0625         0.059949771  
      8150   0             -0.80449307    -0.80449307    -0.010432261    160                   12   0.075          0.061468521  
      8200   0             -0.76704805    -0.76704805    -0.05625929     160                   13   0.08125        0.062881021  
      8250   0             -0.30704282    -0.30704282    -0.031898584    160                   10   0.0625         0.063987271  
      8300   0             -0.71282817    -0.71282817    -0.0095100322   160                    8   0.05           0.06439977   
      8350   0             -0.51268888    -0.51268888     0.094852122    159.99997             13   0.081250016    0.065856021  
      8400   0             -0.32266644    -0.32266644    -0.03110299     159.99998              9   0.056250007    0.06650602   
      8450   0             -0.070952651   -0.070952651   -0.0042769026   160                    5   0.03125        0.065974769  
      8500   0             -0.21068812    -0.21068812    -0.0067598984   160                    6   0.0375         0.064587267  
      8550   0              0.067594772    0.067594772    0.13200474     160                    6   0.0375         0.062168513  
      8600   0             -0.25001211    -0.25001211    -0.01618578     160                    7   0.04375        0.05924976   
      8650   0             -0.16466601    -0.16466601     0.023352231    160                    5   0.03125        0.056187256  
      8700   0             -0.59489276    -0.59489276     0.010798349    160                    7   0.04375        0.053624706  
      8750   0             -0.356885      -0.356885      -0.015592997    160                    6   0.0375         0.050836995  
      8800   0             -0.110118      -0.110118      -0.0037168253   160                    3   0.01875        0.048869083  
      8850   0             -0.21478318    -0.21478318     0.031715335    160                    6   0.0375         0.048025172  
      8900   0             -0.50894819    -0.50894819    -0.028004841    160                    8   0.05           0.048050056  
      8950   0             -0.75218634    -0.75218634     0.00069697295  160                    8   0.05           0.048393752  
      9000   0             -0.15693868    -0.15693868    -0.0079257692   160                    5   0.03125        0.048462501  
      9050   0             -0.12088701    -0.12088701     0.02659496     160                    5   0.03125        0.047762501  
      9100   0             -0.1851685     -0.1851685      0.010732191    160                    5   0.03125        0.046600001  
      9150   0             -0.6990576     -0.6990576     -0.0053685889   160                    5   0.03125        0.044706251  
      9200   0             -0.026944321   -0.026944321   -0.0013088175   160                    4   0.025          0.042668751  
      9250   0             -0.0067480092  -0.0067480092  -0.00025175652  160                    3   0.01875        0.040375001  
      9300   0             -0.16858378    -0.16858378    -0.013558075    160                    7   0.04375        0.039093751  
      9350   0             -0.46814978    -0.46814978     0.032858183    160                    9   0.05625        0.038831251  
      9400   0             -0.25179807    -0.25179807    -0.0067189677   160                    4   0.025          0.0379625    
      9450   0             -0.016233958   -0.016233958   -0.0004025001   160                    2   0.0125         0.03675625   
      9500   0             -0.33551902    -0.33551902    -0.017411419    160                    5   0.03125        0.0359125    
      9550   0             -0.17613104    -0.17613104     0.099497322    160                    9   0.05625        0.0368       
      9600   0             -0.5701848     -0.5701848     -0.052514961    160                   13   0.08125        0.03889375   
      9650   0             -0.41391181    -0.41391181     0.014110126    160                    9   0.05625        0.0405125    
      9700   0             -0.41019481    -0.41019481    -0.03098754     160                   11   0.06875        0.0418875    
      9750   0             -0.67002446    -0.67002446    -0.0309863      160                   14   0.0875         0.04370625   
      9800   0             -0.54142622    -0.54142622    -0.00048224735  160                   11   0.06875        0.0464375    
      9850   0             -0.22498684    -0.22498684    -0.0063481815   160                    9   0.05625        0.04770625   
      9900   0             -0.16896766    -0.16896766    -0.010979119    160                    6   0.0375         0.04751875   
      9950   0             -0.19202508    -0.19202508    -0.0039952914   160                    5   0.03125        0.046125     
     10000   0             -0.28997525    -0.28997525     0.01048416     160                    5   0.03125        0.045275     
     10050   0             -0.36518671    -0.36518671    -0.012734586    160                    5   0.03125        0.04556875   
     10100   0             -0.13417205    -0.13417205    -0.0092864788   160                    6   0.0375         0.045425     
     10150   0             -0.47406159    -0.47406159    -0.021099185    160                    6   0.0375         0.04589375   
     10200   0             -0.04105805    -0.04105805    -0.0024574522   160                    5   0.03125        0.04636875   
     10250   0             -0.34814496    -0.34814496    -0.016948979    160                    7   0.04375        0.04693125   
Loop time of 47.5475 on 1 procs for 10000 steps with 7 atoms

Performance: 90856.507 tau/day, 210.316 timesteps/s, 1.472 katom-step/s
99.2% CPU use with 1 MPI tasks x 1 OpenMP threads

MPI task timing breakdown:
Section |  min time  |  avg time  |  max time  |%varavg| %total
---------------------------------------------------------------
Pair    | 0.008424   | 0.008424   | 0.008424   |   0.0 |  0.02
Neigh   | 0.031705   | 0.031705   | 0.031705   |   0.0 |  0.07
Comm    | 0.012766   | 0.012766   | 0.012766   |   0.0 |  0.03
Output  | 0.0026988  | 0.0026988  | 0.0026988  |   0.0 |  0.01
Modify  | 47.467     | 47.467     | 47.467     |   0.0 | 99.83
Other   |            | 0.02508    |            |       |  0.05

Nlocal:              7 ave           7 max           7 min
Histogram: 1 0 0 0 0 0 0 0 0 0
Nghost:             49 ave          49 max          49 min
Histogram: 1 0 0 0 0 0 0 0 0 0
Neighs:             14 ave          14 max          14 min
Histogram: 1 0 0 0 0 0 0 0 0 0

Total # of neighbors = 14
Ave neighs/atom = 2
Neighbor list builds = 427674
Dangerous builds = 0
Total wall time: 0:00:47
