LAMMPS (10 Sep 2025 - Development - patch_10Sep2025-573-g330f5155a4-modified)
Running on 2 partitions of processors
 GEMC run progress:   1% 
  Trans: 857/993
  Vol: 569/986
  Ex: 36/1021
 LogVolRatio: 1.9637
 GEMC run progress:   2% 
  Trans: 875/1011
  Vol: 596/980
  Ex: 60/1009
 LogVolRatio: 2.46417
 GEMC run progress:   3% 
  Trans: 853/1024
  Vol: 561/995
  Ex: 23/981
 LogVolRatio: 5.38768
 GEMC run progress:   4% 
  Trans: 917/1016
  Vol: 512/976
  Ex: 27/1008
 LogVolRatio: 5.40962
 GEMC run progress:   5% 
  Trans: 877/983
  Vol: 534/1043
  Ex: 25/974
 LogVolRatio: 5.28657
 GEMC run progress:   6% 
  Trans: 934/1029
  Vol: 485/943
  Ex: 30/1028
 LogVolRatio: 6.19305
 GEMC run progress:   7% 
  Trans: 809/949
  Vol: 548/1013
  Ex: 37/1038
 LogVolRatio: 6.89311
 GEMC run progress:   8% 
  Trans: 837/962
  Vol: 543/994
  Ex: 25/1044
 LogVolRatio: 6.50044
 GEMC run progress:   9% 
  Trans: 869/1056
  Vol: 543/966
  Ex: 33/978
 LogVolRatio: 7.72803
 GEMC run progress:  10% 
  Trans: 847/981
  Vol: 586/1049
  Ex: 33/970
 LogVolRatio: 7.87362
 GEMC run progress:  11% 
  Trans: 840/953
  Vol: 535/1044
  Ex: 29/1003
 LogVolRatio: 7.99219
 GEMC run progress:  12% 
  Trans: 865/1019
  Vol: 553/980
  Ex: 27/1001
 LogVolRatio: 10.1768
 GEMC run progress:  13% 
  Trans: 809/995
  Vol: 513/1012
  Ex: 13/993
 LogVolRatio: 8.53489
 GEMC run progress:  14% 
  Trans: 775/1011
  Vol: 488/1018
  Ex: 14/971
 LogVolRatio: 8.99215
 GEMC run progress:  15% 
  Trans: 629/961
  Vol: 498/1016
  Ex: 20/1023
 LogVolRatio: 11.4623
 GEMC run progress:  16% 
  Trans: 694/994
  Vol: 532/1019
  Ex: 15/987
 LogVolRatio: 12.7898
 GEMC run progress:  17% 
  Trans: 736/1049
  Vol: 506/970
  Ex: 20/981
 LogVolRatio: 12.3636
 GEMC run progress:  18% 
  Trans: 737/1002
  Vol: 543/999
  Ex: 18/999
 LogVolRatio: 11.8073
 GEMC run progress:  19% 
  Trans: 868/1003
  Vol: 522/1000
  Ex: 20/997
 LogVolRatio: 9.59195
 GEMC run progress:  20% 
  Trans: 783/1015
  Vol: 490/969
  Ex: 17/1016
 LogVolRatio: 6.03945
 GEMC run progress:  21% 
  Trans: 837/1014
  Vol: 504/984
  Ex: 17/1002
 LogVolRatio: 6.88691
 GEMC run progress:  22% 
  Trans: 860/988
  Vol: 533/957
  Ex: 31/1055
 LogVolRatio: 6.96941
 GEMC run progress:  23% 
  Trans: 760/959
  Vol: 535/1029
  Ex: 27/1012
 LogVolRatio: 4.65324
 GEMC run progress:  24% 
  Trans: 793/976
  Vol: 526/982
  Ex: 19/1042
 LogVolRatio: 5.41018
 GEMC run progress:  25% 
  Trans: 788/966
  Vol: 507/1017
  Ex: 12/1017
 LogVolRatio: 4.86923
 GEMC run progress:  26% 
  Trans: 856/1008
  Vol: 503/976
  Ex: 9/1016
 LogVolRatio: 3.76788
 GEMC run progress:  27% 
  Trans: 872/970
  Vol: 522/996
  Ex: 17/1034
 LogVolRatio: 3.28575
 GEMC run progress:  28% 
  Trans: 869/992
  Vol: 491/999
  Ex: 20/1009
 LogVolRatio: 2.26563
 GEMC run progress:  29% 
  Trans: 938/1038
  Vol: 518/975
  Ex: 26/1017
 LogVolRatio: 2.69303
 GEMC run progress:  30% 
  Trans: 842/992
  Vol: 527/1014
  Ex: 18/964
 LogVolRatio: 3.29096
 GEMC run progress:  31% 
  Trans: 739/948
  Vol: 509/1022
  Ex: 25/1030
 LogVolRatio: 3.32682
 GEMC run progress:  32% 
  Trans: 881/1021
  Vol: 480/968
  Ex: 11/1011
 LogVolRatio: 1.49256
 GEMC run progress:  33% 
  Trans: 855/1028
  Vol: 505/967
  Ex: 15/1005
 LogVolRatio: 2.41896
 GEMC run progress:  34% 
  Trans: 835/1002
  Vol: 524/1000
  Ex: 24/998
 LogVolRatio: 1.66703
 GEMC run progress:  35% 
  Trans: 842/990
  Vol: 505/995
  Ex: 17/1015
 LogVolRatio: 0.632652
 GEMC run progress:  36% 
  Trans: 812/1020
  Vol: 513/954
  Ex: 14/1026
 LogVolRatio: 0.404358
 GEMC run progress:  37% 
  Trans: 744/984
  Vol: 514/1028
  Ex: 13/988
 LogVolRatio: 1.06993
 GEMC run progress:  38% 
  Trans: 811/1000
  Vol: 492/1006
  Ex: 15/994
 LogVolRatio: 3.73439
 GEMC run progress:  39% 
  Trans: 954/1034
  Vol: 456/985
  Ex: 9/981
 LogVolRatio: 3.3726
 GEMC run progress:  40% 
  Trans: 870/995
  Vol: 511/1002
  Ex: 14/1003
 LogVolRatio: 4.06829
 GEMC run progress:  41% 
  Trans: 928/1015
  Vol: 524/1010
  Ex: 23/975
 LogVolRatio: 3.59189
 GEMC run progress:  42% 
  Trans: 940/1042
  Vol: 497/974
  Ex: 23/984
 LogVolRatio: 4.63606
 GEMC run progress:  43% 
  Trans: 951/1017
  Vol: 535/966
  Ex: 34/1017
 LogVolRatio: 2.182
 GEMC run progress:  44% 
  Trans: 834/981
  Vol: 545/1009
  Ex: 27/1010
 LogVolRatio: 1.70184
 GEMC run progress:  45% 
  Trans: 882/978
  Vol: 500/968
  Ex: 38/1054
 LogVolRatio: 3.00896
 GEMC run progress:  46% 
  Trans: 903/1003
  Vol: 519/997
  Ex: 29/1000
 LogVolRatio: 1.85582
 GEMC run progress:  47% 
  Trans: 955/1023
  Vol: 512/947
  Ex: 37/1030
 LogVolRatio: 1.13112
 GEMC run progress:  48% 
  Trans: 851/966
  Vol: 513/979
  Ex: 23/1055
 LogVolRatio: 4.7934
 GEMC run progress:  49% 
  Trans: 882/972
  Vol: 585/1060
  Ex: 35/968
 LogVolRatio: 4.43734
 GEMC run progress:  50% 
  Trans: 830/1008
  Vol: 568/1011
  Ex: 28/981
 LogVolRatio: 3.83235
 GEMC run progress:  51% 
  Trans: 885/987
  Vol: 528/986
  Ex: 33/1027
 LogVolRatio: 5.50277
 GEMC run progress:  52% 
  Trans: 868/961
  Vol: 536/957
  Ex: 23/1082
 LogVolRatio: 7.27963
 GEMC run progress:  53% 
  Trans: 785/934
  Vol: 538/1051
  Ex: 25/1015
 LogVolRatio: 5.99897
 GEMC run progress:  54% 
  Trans: 902/1057
  Vol: 497/955
  Ex: 34/988
 LogVolRatio: 5.0147
 GEMC run progress:  55% 
  Trans: 826/1005
  Vol: 527/995
  Ex: 31/1000
 LogVolRatio: 8.21287
 GEMC run progress:  56% 
  Trans: 844/997
  Vol: 531/996
  Ex: 22/1007
 LogVolRatio: 6.62749
 GEMC run progress:  57% 
  Trans: 873/1026
  Vol: 548/1021
  Ex: 27/983
 LogVolRatio: 3.85805
 GEMC run progress:  58% 
  Trans: 835/967
  Vol: 505/1028
  Ex: 18/1005
 LogVolRatio: 5.17286
 GEMC run progress:  59% 
  Trans: 880/1003
  Vol: 479/961
  Ex: 21/1006
 LogVolRatio: 6.20502
 GEMC run progress:  60% 
  Trans: 892/968
  Vol: 488/1033
  Ex: 10/999
 LogVolRatio: 3.3121
 GEMC run progress:  61% 
  Trans: 949/1021
  Vol: 442/957
  Ex: 10/1022
 LogVolRatio: 3.12453
 GEMC run progress:  62% 
  Trans: 906/1011
  Vol: 439/1001
  Ex: 12/988
 LogVolRatio: 2.09265
 GEMC run progress:  63% 
  Trans: 845/1010
  Vol: 471/982
  Ex: 11/1008
 LogVolRatio: 1.78993
 GEMC run progress:  64% 
  Trans: 852/1030
  Vol: 446/937
  Ex: 9/1033
 LogVolRatio: 2.68373
 GEMC run progress:  65% 
  Trans: 842/1003
  Vol: 458/1016
  Ex: 9/981
 LogVolRatio: 2.20547
 GEMC run progress:  66% 
  Trans: 868/981
  Vol: 431/997
  Ex: 4/1022
 LogVolRatio: 5.00519
 GEMC run progress:  67% 
  Trans: 884/988
  Vol: 449/990
  Ex: 12/1022
 LogVolRatio: 3.74765
 GEMC run progress:  68% 
  Trans: 847/992
  Vol: 457/1028
  Ex: 12/980
 LogVolRatio: 4.10947
 GEMC run progress:  69% 
  Trans: 767/959
  Vol: 482/1010
  Ex: 15/1031
 LogVolRatio: 4.42345
 GEMC run progress:  70% 
  Trans: 808/1035
  Vol: 442/1000
  Ex: 7/965
 LogVolRatio: 1.64923
 GEMC run progress:  71% 
  Trans: 786/1016
  Vol: 471/1020
  Ex: 8/964
 LogVolRatio: -0.813309
 GEMC run progress:  72% 
  Trans: 774/1019
  Vol: 408/970
  Ex: 17/1011
 LogVolRatio: 0.611937
 GEMC run progress:  73% 
  Trans: 884/991
  Vol: 434/991
  Ex: 7/1018
 LogVolRatio: 1.88526
 GEMC run progress:  74% 
  Trans: 899/1015
  Vol: 469/966
  Ex: 13/1019
 LogVolRatio: 2.50253
 GEMC run progress:  75% 
  Trans: 860/1044
  Vol: 438/959
  Ex: 18/997
 LogVolRatio: 2.20985
 GEMC run progress:  76% 
  Trans: 874/1021
  Vol: 473/986
  Ex: 14/993
 LogVolRatio: 2.49492
 GEMC run progress:  77% 
  Trans: 809/1000
  Vol: 480/1008
  Ex: 16/992
 LogVolRatio: 2.33177
 GEMC run progress:  78% 
  Trans: 805/1001
  Vol: 525/1049
  Ex: 10/950
 LogVolRatio: 4.66335
 GEMC run progress:  79% 
  Trans: 710/992
  Vol: 518/1022
  Ex: 17/986
 LogVolRatio: 5.92358
 GEMC run progress:  80% 
  Trans: 718/989
  Vol: 517/984
  Ex: 8/1027
 LogVolRatio: 6.55826
 GEMC run progress:  81% 
  Trans: 734/998
  Vol: 521/1000
  Ex: 13/1002
 LogVolRatio: 5.39934
 GEMC run progress:  82% 
  Trans: 780/946
  Vol: 506/1026
  Ex: 24/1028
 LogVolRatio: 4.08934
 GEMC run progress:  83% 
  Trans: 983/1031
  Vol: 474/955
  Ex: 13/1014
 LogVolRatio: 8.19827
 GEMC run progress:  84% 
  Trans: 877/963
  Vol: 513/1030
  Ex: 14/1007
 LogVolRatio: 9.76533
 GEMC run progress:  85% 
  Trans: 772/946
  Vol: 531/1005
  Ex: 22/1049
 LogVolRatio: 10.5781
 GEMC run progress:  86% 
  Trans: 903/975
  Vol: 574/1061
  Ex: 31/964
 LogVolRatio: 11.8332
 GEMC run progress:  87% 
  Trans: 910/1011
  Vol: 492/965
  Ex: 29/1024
 LogVolRatio: 12.5688
 GEMC run progress:  88% 
  Trans: 919/988
  Vol: 564/1012
  Ex: 15/1000
 LogVolRatio: 11.3439
 GEMC run progress:  89% 
  Trans: 984/1018
  Vol: 515/1012
  Ex: 15/970
 LogVolRatio: 9.63229
 GEMC run progress:  90% 
  Trans: 850/983
  Vol: 512/1017
  Ex: 29/1000
 LogVolRatio: 9.43696
 GEMC run progress:  91% 
  Trans: 806/1000
  Vol: 530/951
  Ex: 32/1049
 LogVolRatio: 9.9821
 GEMC run progress:  92% 
  Trans: 783/1003
  Vol: 504/988
  Ex: 25/1009
 LogVolRatio: 8.09895
 GEMC run progress:  93% 
  Trans: 763/1003
  Vol: 526/1010
  Ex: 16/987
 LogVolRatio: 7.90556
 GEMC run progress:  94% 
  Trans: 725/978
  Vol: 528/1014
  Ex: 22/1008
 LogVolRatio: 8.01023
 GEMC run progress:  95% 
  Trans: 865/1017
  Vol: 532/1000
  Ex: 17/983
 LogVolRatio: 9.96258
 GEMC run progress:  96% 
  Trans: 813/993
  Vol: 539/1019
  Ex: 16/988
 LogVolRatio: 10.5918
 GEMC run progress:  97% 
  Trans: 865/968
  Vol: 496/1029
  Ex: 22/1003
 LogVolRatio: 10.2931
 GEMC run progress:  98% 
  Trans: 863/1046
  Vol: 513/980
  Ex: 11/974
 LogVolRatio: 8.3196
 GEMC run progress:  99% 
  Trans: 872/1001
  Vol: 565/1003
  Ex: 33/996
 LogVolRatio: 6.03422
 GEMC run progress: 100% 
  Trans: 981/1008
  Vol: 518/1013
  Ex: 18/979
 LogVolRatio: 4.11971
