LAMMPS (10 Dec 2025 - Development - patch_10Dec2025-120-ga51f9ba0e7-modified)
OMP_NUM_THREADS environment is not set. Defaulting to 1 thread.
  using 1 OpenMP thread(s) per MPI task
# GCMC for CO2 molecular fluid, rigid/small dynamics
# Rigid CO2 TraPPE model
# [Potoff and J.I. Siepmann, Vapor-liquid equilibria of
# mixtures containing alkanes, carbon dioxide and
# nitrogen AIChE J., 47,1676-1682 (2001)].

# variables available on command line

variable        mu index -8.1
variable        disp index 0.5
variable        temp index 338.0
variable        lbox index 10.0
variable        spacing index 5.0

# global model settings

units           real
atom_style      full
boundary        p p p
pair_style      lj/cut/coul/long  14
pair_modify     mix arithmetic tail yes
kspace_style    ewald 0.0001
bond_style      harmonic
angle_style     harmonic

# box, start molecules on simple cubic lattice

lattice         sc ${spacing}
lattice         sc 5.0
Lattice spacing in x,y,z = 5 5 5
region          box block 0 ${lbox} 0 ${lbox} 0 ${lbox} units box
region          box block 0 10.0 0 ${lbox} 0 ${lbox} units box
region          box block 0 10.0 0 10.0 0 ${lbox} units box
region          box block 0 10.0 0 10.0 0 10.0 units box
create_box      2 box                                       bond/types 1                                angle/types 1                               extra/bond/per/atom 2                       extra/angle/per/atom 1                      extra/special/per/atom 2
Created orthogonal box = (0 0 0) to (10 10 10)
  1 by 1 by 1 MPI processor grid
molecule        co2mol CO2.txt
Read molecule template co2mol:
# CO2 molecule file. TraPPE model.
  1 molecules
  0 fragments
  0 bodies
  3 atoms with max type 2
  2 bonds with max type 1
  1 angles with max type 1
  0 dihedrals with max type 0
  0 impropers with max type 0
create_atoms    0 box mol co2mol 464563 units box
Created 24 atoms
  using box units in orthogonal box = (0 0 0) to (10 10 10)
  create_atoms CPU = 0.002 seconds

# rigid CO2 TraPPE model

pair_coeff      1   1  0.053649   2.8
pair_coeff      2   2  0.156973   3.05
bond_coeff      1       0       1.16
angle_coeff     1       0       180

# masses

mass 1 12.0107
mass 2 15.9994

# MD settings

group           co2 type 1 2
24 atoms in group co2
neighbor        2.0 bin
neigh_modify    every 1 delay 10 check yes
velocity        all create ${temp} 54654
velocity        all create 338.0 54654
timestep        1.0

# rigid constraints with thermostat

fix             myrigid co2 rigid/small molecule mol co2mol
Fix rigid/small setup ...
  create bodies CPU = 0.000 seconds
  8 rigid bodies with 24 atoms
  1.16 = max distance from body owner to body atom

# dynamically update  fix rigid/nvt/small temperature ndof
fix_modify      myrigid dynamic/dof yes

# gcmc

variable        tfac equal 5.0/3.0 # (3 trans + 2 rot)/(3 trans)
fix             mygcmc co2 gcmc 100 100 0 0 54341 ${temp} ${mu} ${disp} mol                 co2mol tfac_insert ${tfac} group co2 rigid myrigid
fix             mygcmc co2 gcmc 100 100 0 0 54341 338.0 ${mu} ${disp} mol                 co2mol tfac_insert ${tfac} group co2 rigid myrigid
fix             mygcmc co2 gcmc 100 100 0 0 54341 338.0 -8.1 ${disp} mol                 co2mol tfac_insert ${tfac} group co2 rigid myrigid
fix             mygcmc co2 gcmc 100 100 0 0 54341 338.0 -8.1 0.5 mol                 co2mol tfac_insert ${tfac} group co2 rigid myrigid
fix             mygcmc co2 gcmc 100 100 0 0 54341 338.0 -8.1 0.5 mol                 co2mol tfac_insert 1.66666666666667 group co2 rigid myrigid

# atom counts

variable        carbon atom "type==1"
variable        oxygen atom "type==2"
group           carbon dynamic co2 var carbon
dynamic group carbon defined
group           oxygen dynamic co2 var oxygen
dynamic group oxygen defined
variable        nC equal count(carbon)
variable        nO equal count(oxygen)

# output

variable        tacc equal f_mygcmc[2]/(f_mygcmc[1]+0.1)
variable        iacc equal f_mygcmc[4]/(f_mygcmc[3]+0.1)
variable        dacc equal f_mygcmc[6]/(f_mygcmc[5]+0.1)
variable        racc equal f_mygcmc[8]/(f_mygcmc[7]+0.1)

# dynamically update default temperature ndof
compute_modify  thermo_temp dynamic/dof yes

thermo_style    custom step temp press pe ke density atoms v_iacc v_dacc v_tacc v_racc v_nC v_nO
thermo          1000

# run

run             20000
Ewald initialization ...
  using 12-bit tables for long-range coulomb
  G vector (1/distance) = 0.16463644
  estimated absolute RMS force accuracy = 0.033206372
  estimated relative force accuracy = 0.0001
  KSpace vectors: actual max1d max3d = 16 2 62
                  kxmax kymax kzmax  = 2 2 2
Generated 1 of 1 mixed pair_coeff terms from arithmetic mixing rule
WARNING: Fix gcmc using full_energy option (src/MC/fix_gcmc.cpp:544)
0 atoms in group FixGCMC:gcmc_exclusion_group:mygcmc
0 atoms in group FixGCMC:rotation_gas_atoms:mygcmc
WARNING: Neighbor exclusions used with KSpace solver may give inconsistent Coulombic energies (src/neighbor.cpp:659)
Neighbor list info ...
  update: every = 1 steps, delay = 10 steps, check = yes
  max neighbors/atom: 2000, page size: 100000
  master list distance cutoff = 16
  ghost atom cutoff = 16
  binsize = 8, bins = 2 2 2
  1 neighbor lists, perpetual/occasional/extra = 1 0 0
  (1) pair lj/cut/coul/long, perpetual
      attributes: half, newton on
      pair build: half/bin/newton
      stencil: half/bin/3d
      bin: standard
Per MPI rank memory allocation (min/avg/max) = 16.23 | 16.23 | 16.23 Mbytes
   Step          Temp          Press          PotEng         KinEng        Density        Atoms        v_iacc         v_dacc         v_tacc         v_racc          v_nC           v_nO     
         0   364.27579      4238.8638     -9.6809362      13.391989      0.5846359             24   0              0              0              0              8              16           
      1000   239.50732     -332.41558     -9.6018078      7.6152089      0.51155641            21   0.29169181     0.29020076     0              0              7              14           
      2000   446.96593      78.721803     -3.1251704      7.5498163      0.29231795            12   0.28013496     0.27198904     0              0              4              8            
      3000   362.05815      1404.7018     -17.645369      16.907883      0.73079488            30   0.19598693     0.19465369     0              0              10             20           
      4000   207.72098     -471.61467     -9.7720977      6.6045523      0.51155641            21   0.18705537     0.18943772     0              0              7              14           
      5000   419.11314     -395.16807     -11.025698      15.407992      0.5846359             24   0.15699578     0.1614539      0              0              8              16           
      6000   432.40537      80.916165     -0.28144571     3.0074759      0.14615898             6   0.16328698     0.16671688     0              0              2              4            
      7000   288.34432     -123.9453      -2.5804542      4.8704981      0.29231795            12   0.16953463     0.17451099     0              0              4              8            
      8000   418.50969      174.25323     -7.0690563      11.227481      0.43847693            18   0.19170122     0.1948101      0              0              6              12           
      9000   357.65351      110.5031      -10.387109      11.371703      0.51155641            21   0.19418331     0.19806644     0              0              7              14           
     10000   464.18553     -56.154077     -6.6846585      12.45284       0.43847693            18   0.19813727     0.20311141     0              0              6              12           
     11000   328.19735     -800.73816     -21.508226      15.326605      0.73079488            30   0.19654695     0.20095324     0              0              10             20           
     12000   392.89676     -314.43906     -8.2466956      12.492273      0.51155641            21   0.19474839     0.19878474     0              0              7              14           
     13000   182.37598     -89.379693     -3.1042132      3.0805595      0.29231795            12   0.194632       0.19894085     0              0              4              8            
     14000   416.3691      -617.39579     -18.961544      19.444169      0.73079488            30   0.19697334     0.201066       0              0              10             20           
     15000   365.36739      2215.852      -25.870413      20.692725      0.87695385            36   0.18508517     0.18909179     0              0              12             24           
     16000   275.49624     -105.32047     -2.7893372      3.2848079      0.21923846             9   0.1838631      0.18830275     0              0              3              6            
     17000   1752.0629      138.49857     -0.086517892    3.4817112      0.073079488            3   0.19058492     0.19522106     0              0              1              2            
     18000   350.19175      55.861077     -10.91479       12.874213      0.5846359             24   0.19977766     0.20358717     0              0              8              16           
     19000   363.40407     -155.63506     -23.121242      16.970737      0.73079488            30   0.20123015     0.20426354     0              0              10             20           
     20000   486.78762      24.095468     -9.640948       15.477562      0.51155641            21   0.20281461     0.20631031     0              0              7              14           
Loop time of 9.58768 on 1 procs for 20000 steps with 21 atoms

Performance: 180.231 ns/day, 0.133 hours/ns, 2086.011 timesteps/s, 43.806 katom-step/s
99.9% CPU use with 1 MPI tasks x 1 OpenMP threads

MPI task timing breakdown:
Section |  min time  |  avg time  |  max time  |%varavg| %total
---------------------------------------------------------------
Pair    | 1.7483     | 1.7483     | 1.7483     |   0.0 | 18.23
Bond    | 0.016997   | 0.016997   | 0.016997   |   0.0 |  0.18
Kspace  | 0.089729   | 0.089729   | 0.089729   |   0.0 |  0.94
Neigh   | 0.050143   | 0.050143   | 0.050143   |   0.0 |  0.52
Comm    | 0.094584   | 0.094584   | 0.094584   |   0.0 |  0.99
Output  | 0.00096077 | 0.00096077 | 0.00096077 |   0.0 |  0.01
Modify  | 7.5647     | 7.5647     | 7.5647     |   0.0 | 78.90
Other   |            | 0.02228    |            |       |  0.23

Nlocal:             21 ave          21 max          21 min
Histogram: 1 0 0 0 0 0 0 0 0 0
Nghost:           1607 ave        1607 max        1607 min
Histogram: 1 0 0 0 0 0 0 0 0 0
Neighs:           3751 ave        3751 max        3751 min
Histogram: 1 0 0 0 0 0 0 0 0 0

Total # of neighbors = 3751
Ave neighs/atom = 178.61905
Ave special neighs/atom = 2
Neighbor list builds = 20157
Dangerous builds = 0

Total wall time: 0:00:09
