LAMMPS (10 Sep 2025 - Development - patch_10Sep2025-522-g338caa7f33-modified)
Processor partition = 1
OMP_NUM_THREADS environment is not set. Defaulting to 1 thread.
  using 1 OpenMP thread(s) per MPI task
# 3d Lennard-Jones melt to vapor-liquid mixture GEMC
# mpirun -np 5 ./lmp -in in.gemc.lj -p 1 4

variable        temp index 1.0
variable        ntranslate index 10
variable        nexchange index 10
variable        nvolume index 10
variable        displace index 0.5
variable        max_volume index 100.0
variable        nsteps index 10000

units           lj
atom_style      atomic

# initialize gas state in partition 1

partition       yes 1 lattice fcc 0.05
partition       yes 1 region box block 0 1 0 1 0 1

# initialize liquid state in partition 2

partition       yes 2 lattice fcc 0.6
lattice fcc 0.6
Lattice spacing in x,y,z = 1.8820721 1.8820721 1.8820721
partition       yes 2 region box block 0 3 0 3 0 3
region box block 0 3 0 3 0 3

create_box      1 box
Created orthogonal box = (0 0 0) to (5.6462162 5.6462162 5.6462162)
  1 by 2 by 2 MPI processor grid
create_atoms    1 box
Created 108 atoms
  using lattice units in orthogonal box = (0 0 0) to (5.6462162 5.6462162 5.6462162)
  create_atoms CPU = 0.000 seconds
mass            1 1.0

velocity        all create 3.0 87287 loop geom

pair_style      lj/cut 2.5
pair_coeff      1 1 1.0 1.0 2.5

neighbor        0.3 bin
neigh_modify    every 1 delay 5 check yes

fix             1 all nve

thermo          50
thermo_style    custom step temp pe etotal press vol atoms density
run             250
Generated 0 of 0 mixed pair_coeff terms from geometric mixing rule
Neighbor list info ...
  update: every = 1 steps, delay = 5 steps, check = yes
  max neighbors/atom: 2000, page size: 100000
  master list distance cutoff = 2.8
  ghost atom cutoff = 2.8
  binsize = 1.4, bins = 5 5 5
  1 neighbor lists, perpetual/occasional/extra = 1 0 0
  (1) pair lj/cut, perpetual
      attributes: half, newton on
      pair build: half/bin/atomonly/newton
      stencil: half/bin/3d
      bin: standard
Per MPI rank memory allocation (min/avg/max) = 3.061 | 3.061 | 3.061 Mbytes
   Step          Temp          PotEng         TotEng         Press          Volume        Atoms       Density    
         0   3             -4.1241917      0.33414167    -2.2227267      180                  108   0.6          
        50   2.196824      -2.9056637      0.35906085     4.0902344      180                  108   0.6          
       100   2.4296563     -3.2491278      0.36161142     3.0239251      180                  108   0.6          
       150   2.3933594     -3.1973246      0.35947343     2.9220808      180                  108   0.6          
       200   2.3489459     -3.1289633      0.36183139     3.38915        180                  108   0.6          
       250   2.5110637     -3.3703887      0.36133095     2.6457948      180                  108   0.6          
Loop time of 0.0080268 on 4 procs for 250 steps with 108 atoms

Performance: 13454925.579 tau/day, 31145.661 timesteps/s, 3.364 Matom-step/s
98.5% CPU use with 4 MPI tasks x 1 OpenMP threads

MPI task timing breakdown:
Section |  min time  |  avg time  |  max time  |%varavg| %total
---------------------------------------------------------------
Pair    | 0.001934   | 0.0021969  | 0.0023306  |   0.3 | 27.37
Neigh   | 0.0012014  | 0.0013452  | 0.0014451  |   0.3 | 16.76
Comm    | 0.0037685  | 0.0040013  | 0.0044124  |   0.4 | 49.85
Output  | 9.9249e-05 | 0.00010102 | 0.00010526 |   0.0 |  1.26
Modify  | 0.00011079 | 0.00012369 | 0.00014264 |   0.0 |  1.54
Other   |            | 0.0002587  |            |       |  3.22

Nlocal:             27 ave          33 max          21 min
Histogram: 1 0 0 0 1 1 0 0 0 1
Nghost:            453 ave         473 max         430 min
Histogram: 1 0 1 0 0 0 0 0 0 2
Neighs:            738 ave         903 max         508 min
Histogram: 1 0 0 0 0 1 0 1 0 1

Total # of neighbors = 2952
Ave neighs/atom = 27.333333
Neighbor list builds = 40
Dangerous builds = 4
unfix           1

velocity        all create 0.0 87287 loop geom

#   args: nevery ntranslate nexchange nvolume box_temp displace max_volume seed

fix              2 all gemc 1 ${ntranslate} ${nexchange} ${nvolume} ${temp} ${displace} ${max_volume} 29494
fix              2 all gemc 1 10 ${nexchange} ${nvolume} ${temp} ${displace} ${max_volume} 29494
fix              2 all gemc 1 10 10 ${nvolume} ${temp} ${displace} ${max_volume} 29494
fix              2 all gemc 1 10 10 10 ${temp} ${displace} ${max_volume} 29494
fix              2 all gemc 1 10 10 10 1.0 ${displace} ${max_volume} 29494
fix              2 all gemc 1 10 10 10 1.0 0.5 ${max_volume} 29494
fix              2 all gemc 1 10 10 10 1.0 0.5 100.0 29494

variable        mydensity equal density
fix             3 all ave/time 1 50 50 v_mydensity ave window 20
thermo_style    custom step temp pe etotal press vol atoms density f_3

run             ${nsteps}
run             10000
WARNING: No fixes with time integration, atoms won't move
For more information see https://docs.lammps.org/err0028 (src/verlet.cpp:60)
Generated 0 of 0 mixed pair_coeff terms from geometric mixing rule
0 atoms in group FixGEMC:gemc_exclusion_group:2
Per MPI rank memory allocation (min/avg/max) = 3.066 | 3.069 | 3.071 Mbytes
   Step          Temp          PotEng         TotEng         Press          Volume        Atoms       Density          f_3      
       250   0             -3.3703887     -3.3703887      1.153107       180                  108   0.6            0            
       300   0             -3.5300205     -3.5300205      0.13762041     186.71017            108   0.57843662     0.55642124   
       350   0             -3.5185935     -3.5185935     -0.47097934     191.97549            106   0.55215383     0.56075751   
       400   0             -3.6100138     -3.6100138     -0.10824729     184.59839            106   0.57421951     0.55982271   
       450   0             -3.6364023     -3.6364023     -0.54496922     190.55545            109   0.57201197     0.56263343   
       500   0             -3.6506047     -3.6506047     -0.20893521     187.61576            108   0.57564459     0.56412364   
       550   0             -3.6846631     -3.6846631      0.062665354    185.87772            109   0.58640703     0.56560617   
       600   0             -3.817086      -3.817086      -0.4852008      184.84686            110   0.5950872      0.5673458    
       650   0             -3.7501796     -3.7501796     -0.15812132     182.35645            110   0.6032142      0.57026361   
       700   0             -3.6803162     -3.6803162     -0.098072607    181.5561             109   0.6003654      0.5729803    
       750   0             -3.7058608     -3.7058608     -0.2618123      179.97607            107   0.5945235      0.57568868   
       800   0             -3.8645139     -3.8645139      0.017568205    175.63223            109   0.62061502     0.57819025   
       850   0             -3.8432195     -3.8432195     -0.4569215      182.55652            110   0.60255311     0.57989865   
       900   0             -3.8224773     -3.8224773     -0.2687103      179.38188            104   0.57976872     0.58121087   
       950   0             -3.7923742     -3.7923742     -0.42990641     186.24174            106   0.56915274     0.58048364   
      1000   0             -3.8149462     -3.8149462     -0.24806053     181.2543             107   0.59033083     0.58034496   
      1050   0             -4.0515519     -4.0515519      0.32852545     171.88549            110   0.63996093     0.58184827   
      1100   0             -3.9560105     -3.9560105     -0.47176765     179.32112            108   0.60227151     0.5834695    
      1150   0             -4.0421731     -4.0421731     -0.43786953     176.9868             110   0.62151527     0.58517785   
      1200   0             -4.052242      -4.052242      -0.58410221     179.23598            110   0.61371606     0.58665712   
      1250   0             -3.9198997     -3.9198997     -0.87307975     188.03105            107   0.56905494     0.58724988   
      1300   0             -3.8955757     -3.8955757      0.2175851      175.14648            109   0.62233622     0.58922893   
      1350   0             -3.9183058     -3.9183058     -0.6040015      180.79499            109   0.60289282     0.59086257   
      1400   0             -3.7232314     -3.7232314     -0.65692023     189.18393            108   0.57087301     0.59303648   
      1450   0             -3.7805747     -3.7805747     -0.3965119      183.32875            109   0.59456032     0.59369472   
      1500   0             -3.8496038     -3.8496038     -0.36781683     182.0728             108   0.59316932     0.59464479   
      1550   0             -3.8303847     -3.8303847     -0.61461986     188.55168            110   0.58339442     0.59541872   
      1600   0             -3.7348701     -3.7348701     -0.54844        187.51952            110   0.58660559     0.5961222    
      1650   0             -3.9695064     -3.9695064     -0.22083181     176.70029            110   0.62252305     0.59701827   
      1700   0             -3.8650509     -3.8650509      0.16622801     172.07654            105   0.61019357     0.59731306   
      1750   0             -3.7977592     -3.7977592     -0.27189265     177.11856            106   0.59846917     0.59705253   
      1800   0             -3.5731808     -3.5731808     -0.43139778     188.75496            106   0.56157465     0.59560778   
      1850   0             -3.7913949     -3.7913949     -0.61367376     187.26693            108   0.57671688     0.59467481   
      1900   0             -3.9191494     -3.9191494      0.046763358    179.67823            109   0.60663999     0.59405156   
      1950   0             -4.0404392     -4.0404392     -0.89244954     178.91136            107   0.59806152     0.59552521   
      2000   0             -3.945182      -3.945182      -0.97244762     178.1994             106   0.59483925     0.59809421   
      2050   0             -4.1353814     -4.1353814     -0.50407027     173.80961            110   0.63287639     0.59955395   
      2100   0             -3.972749      -3.972749       0.039481805    173.41677            109   0.62854361     0.60009934   
      2150   0             -3.881943      -3.881943      -0.74268807     183.88066            110   0.59821407     0.5995092    
      2200   0             -3.9972701     -3.9972701     -0.49064234     177.19907            110   0.62077076     0.59994103   
      2250   0             -4.0987214     -4.0987214     -0.18346227     168.6244             108   0.64047671     0.60148903   
      2300   0             -4.0896044     -4.0896044      0.080279661    164.1418             105   0.63969079     0.60351881   
      2350   0             -4.0636432     -4.0636432     -0.49586228     170.31755            107   0.62823826     0.60482507   
      2400   0             -4.0818976     -4.0818976     -0.79408274     174.48205            110   0.63043734     0.60631425   
      2450   0             -4.1174744     -4.1174744     -0.5746023      170.42535            108   0.63370855     0.6091956    
      2500   0             -4.1573937     -4.1573937     -0.33276134     163.67641            107   0.65372889     0.61221157   
      2550   0             -4.0947717     -4.0947717     -0.90586384     169.25151            106   0.6262869      0.61496361   
      2600   0             -4.2347462     -4.2347462     -0.22169942     160.57233            107   0.66636636     0.61822042   
      2650   0             -4.2857031     -4.2857031     -0.75934269     160.41791            106   0.66077411     0.62087123   
      2700   0             -4.4378471     -4.4378471     -0.55976971     157.04934            108   0.68768199     0.62505195   
      2750   0             -4.1349541     -4.1349541     -1.081642       171.1762             108   0.63092882     0.62865498   
      2800   0             -4.2392958     -4.2392958     -0.4503445      161.88225            107   0.66097424     0.6333992    
      2850   0             -4.2125255     -4.2125255     -0.63312349     160.94268            105   0.6524062      0.63703648   
      2900   0             -4.1518685     -4.1518685     -0.72661025     161.15493            104   0.64534172     0.64044641   
      2950   0             -4.180609      -4.180609       0.2319552      156.41114            105   0.67130769     0.64301038   
      3000   0             -4.3429614     -4.3429614      0.19296605     150.27605            103   0.6854053      0.6450372    
      3050   0             -4.2501026     -4.2501026     -0.030854586    151.63197            102   0.67268135     0.64657165   
      3100   0             -4.4981955     -4.4981955     -0.4178173      148.30154            103   0.69453088     0.64914752   
      3150   0             -4.3258905     -4.3258905     -0.49087259     151.51217            102   0.67321325     0.65331423   
      3200   0             -4.31449       -4.31449       -0.69694879     151.61921            100   0.65954705     0.65578086   
      3250   0             -4.3649613     -4.3649613     -0.55609117     148.96907            100   0.67128027     0.65784613   
      3300   0             -4.3234238     -4.3234238     -0.73949323     150.47572            100   0.66455902     0.66015788   
      3350   0             -4.2468673     -4.2468673     -0.062116761    151.99386            101   0.66450054     0.6621666    
      3400   0             -4.2822689     -4.2822689      0.06284526     146.11981             98   0.67068252     0.66326604   
      3450   0             -4.1646445     -4.1646445      0.0019601956   151.91972             99   0.65165995     0.66394124   
      3500   0             -4.1997415     -4.1997415     -0.45285417     158.15224            104   0.65759423     0.66358375   
      3550   0             -4.2825725     -4.2825725      0.1331198      152.40575            103   0.67582751     0.66408909   
      3600   0             -4.3883346     -4.3883346     -0.38261752     155.11722            105   0.67690743     0.66498561   
      3650   0             -4.3109757     -4.3109757     -0.70907552     156.46943            103   0.65827557     0.66565203   
      3700   0             -4.2510884     -4.2510884     -0.96707693     156.94744            101   0.64352755     0.66486174   
      3750   0             -4.1060048     -4.1060048     -0.67498421     159.47667            101   0.63332149     0.66405018   
      3800   0             -3.937164      -3.937164      -0.94374919     169.75128            103   0.60677008     0.66245611   
      3850   0             -4.037176      -4.037176      -0.92092349     168.64188            104   0.61669141     0.66140832   
      3900   0             -3.9869583     -3.9869583     -0.49542481     172.44829            108   0.62627469     0.66008131   
      3950   0             -4.0211189     -4.0211189     -0.67003565     174.29001            108   0.61965684     0.65826169   
      4000   0             -4.1045292     -4.1045292     -0.20191797     164.99638            106   0.64243833     0.6559918    
      4050   0             -4.1250185     -4.1250185     -0.38062192     169.16216            108   0.63844064     0.65481179   
      4100   0             -4.2627538     -4.2627538     -0.46325371     166.85453            110   0.65925691     0.65370806   
      4150   0             -4.050779      -4.050779      -0.73143105     178.073              110   0.61772418     0.65077955   
      4200   0             -4.0187764     -4.0187764     -0.039565084    167.51503            107   0.63874867     0.64858533   
      4250   0             -4.1284003     -4.1284003     -0.36584292     165.25266            107   0.64749337     0.64758208   
      4300   0             -4.1274009     -4.1274009     -0.1773641      165.82693            107   0.64525103     0.64523492   
      4350   0             -4.2038647     -4.2038647     -0.018623411    157.74707            105   0.6656225      0.64428712   
      4400   0             -4.2277266     -4.2277266     -0.18893784     159.25724            105   0.6593107      0.64428674   
      4450   0             -4.1475985     -4.1475985     -0.18914402     159.78595            103   0.64461239     0.64312404   
      4500   0             -4.1215347     -4.1215347     -0.23922923     163.6191             105   0.64173438     0.64290796   
      4550   0             -4.0235286     -4.0235286     -0.20227168     169.02986            108   0.63894036     0.64164555   
      4600   0             -3.929142      -3.929142      -0.70506637     170.60553            104   0.60959337     0.63918504   
      4650   0             -4.2169684     -4.2169684     -0.46054656     166.40613            109   0.65502395     0.63757389   
      4700   0             -4.1827143     -4.1827143     -0.25009459     167.29195            108   0.64557798     0.63631799   
      4750   0             -4.0861839     -4.0861839     -0.62852734     171.09399            105   0.61369778     0.63559768   
      4800   0             -4.1049452     -4.1049452     -0.58631638     174.10298            110   0.63180999     0.63465144   
      4850   0             -4.2060687     -4.2060687     -0.60285993     167.82594            108   0.64352386     0.63513377   
      4900   0             -4.1787777     -4.1787777     -0.24875928     166.33738            109   0.65529467     0.63671154   
      4950   0             -4.159407      -4.159407      -0.37042747     166.08098            108   0.65028519     0.63877384   
      5000   0             -4.0713605     -4.0713605     -0.45078772     165.29462            105   0.63522938     0.63994125   
      5050   0             -4.0841898     -4.0841898     -0.62907328     173.21468            109   0.6292769      0.63980504   
      5100   0             -3.8916143     -3.8916143     -0.043409723    170.58759            106   0.62138167     0.63857086   
      5150   0             -3.9178835     -3.9178835     -0.44507478     176.16091            108   0.61307583     0.63757499   
      5200   0             -3.8622024     -3.8622024     -0.27902889     177.21623            108   0.60942499     0.63658664   
      5250   0             -3.965065      -3.965065      -0.43348199     176.21927            109   0.61854755     0.63474001   
      5300   0             -4.054692      -4.054692      -0.14121169     172.30844            109   0.63258655     0.63414182   
      5350   0             -3.9393347     -3.9393347     -0.37920322     177.85046            110   0.61849713     0.63268358   
      5400   0             -3.9447758     -3.9447758     -0.60931664     180.7092             110   0.60871279     0.63088396   
      5450   0             -3.9122695     -3.9122695     -0.76068441     181.67382            108   0.59447201     0.62964216   
      5500   0             -3.9577098     -3.9577098     -0.62036412     181.77927            109   0.59962834     0.6284997    
      5550   0             -4.0821659     -4.0821659     -1.034329       182.77701            110   0.60182623     0.62808917   
      5600   0             -4.2436549     -4.2436549     -0.69038934     171.87138            110   0.64001346     0.62859182   
      5650   0             -4.1571435     -4.1571435      0.32726984     164.41302            107   0.65080004     0.62821164   
      5700   0             -4.2646882     -4.2646882     -0.7892754      171.57895            110   0.64110428     0.62769465   
      5750   0             -4.2178206     -4.2178206     -1.0418335      172.26752            108   0.62693187     0.62797445   
      5800   0             -4.1328503     -4.1328503     -0.29515159     168.90341            108   0.63941871     0.62903227   
      5850   0             -3.9533734     -3.9533734     -0.91403781     181.71357            109   0.59984512     0.62838686   
      5900   0             -4.0106415     -4.0106415     -0.17364439     169.47291            106   0.62546868     0.62670834   
      5950   0             -4.1067385     -4.1067385     -0.32823663     167.73865            108   0.64385878     0.62580517   
      6000   0             -4.1037174     -4.1037174      0.45787428     160.5623             106   0.66017987     0.62527098   
      6050   0             -3.9890244     -3.9890244      0.52962479     161.36339            105   0.6507052      0.62497943   
      6100   0             -4.0237602     -4.0237602     -0.34784233     169.93111            108   0.63555165     0.62506738   
      6150   0             -4.1249942     -4.1249942     -0.0023094791   165.49756            107   0.6465352      0.6265393    
      6200   0             -4.1546769     -4.1546769     -0.21620283     165.94204            109   0.65685584     0.62810442   
      6250   0             -4.129898      -4.129898      -0.87042918     170.46998            106   0.62181037     0.62986427   
      6300   0             -4.0402559     -4.0402559     -0.86367925     175.1506             109   0.62232158     0.63091015   
      6350   0             -4.051102      -4.051102      -0.2017696      166.15781            106   0.63794774     0.6312962    
      6400   0             -3.8975728     -3.8975728     -0.82254612     173.53459            105   0.6050667      0.63202439   
      6450   0             -3.9951305     -3.9951305     -0.33189083     167.27433            105   0.62771137     0.63289495   
      6500   0             -3.8847545     -3.8847545     -0.42702696     171.84662            106   0.61682913     0.63308747   
      6550   0             -3.8810043     -3.8810043     -0.068470926    168.96248            104   0.61552128     0.63238658   
      6600   0             -4.1117942     -4.1117942     -0.6612502      168.2503             106   0.63001373     0.63107219   
      6650   0             -4.3323854     -4.3323854     -0.90194851     160.72791            106   0.65949966     0.63211558   
      6700   0             -4.2921027     -4.2921027     -1.0245715      162.7997             105   0.64496432     0.63396526   
      6750   0             -4.2944196     -4.2944196      0.23898749     157.33459            107   0.6800793      0.63520825   
      6800   0             -4.2378886     -4.2378886     -0.25638847     160.19594            105   0.65544731     0.63597896   
      6850   0             -4.2520295     -4.2520295     -0.065607537    159.0919             107   0.67256723     0.63794493   
      6900   0             -4.3553427     -4.3553427     -0.58651352     161.1899             108   0.67001718     0.6401578    
      6950   0             -4.2697945     -4.2697945     -0.40151936     164.05264            110   0.6705165      0.64188982   
      7000   0             -4.1638635     -4.1638635     -0.42416036     169.52556            109   0.64297091     0.64263416   
      7050   0             -4.0985679     -4.0985679     -0.32681264     169.51672            110   0.64890355     0.64323893   
      7100   0             -4.0490609     -4.0490609     -0.58215251     170.9093             109   0.63776517     0.64423209   
      7150   0             -4.0836181     -4.0836181     -0.71488777     171.91707            109   0.63402662     0.64388668   
      7200   0             -4.1413181     -4.1413181     -0.518566       169.73198            109   0.64218892     0.64422214   
      7250   0             -4.131741      -4.131741      -0.57213932     170.93505            109   0.63766912     0.64441883   
      7300   0             -4.1835513     -4.1835513     -0.86294074     171.46816            110   0.64151852     0.64499033   
      7350   0             -4.2567585     -4.2567585     -0.2657082      162.77956            108   0.66347397     0.646828     
      7400   0             -4.2609115     -4.2609115     -0.83657585     165.61735            108   0.65210558     0.64826895   
      7450   0             -4.1654067     -4.1654067     -0.73574812     171.50159            110   0.64139347     0.64986444   
      7500   0             -4.1166351     -4.1166351     -0.56631861     172.34618            110   0.63825031     0.65097329   
      7550   0             -4.0399115     -4.0399115     -0.44530633     168.53135            107   0.6348967      0.65277472   
      7600   0             -4.2008597     -4.2008597     -0.2312115      162.33963            107   0.65911203     0.65458084   
      7650   0             -4.1712195     -4.1712195     -0.75855221     164.55138            106   0.6441757      0.65457373   
      7700   0             -4.1867513     -4.1867513     -0.92612989     167.75542            107   0.63783333     0.6540886    
      7750   0             -4.4195425     -4.4195425     -0.76832907     163.10566            109   0.66827846     0.65452149   
      7800   0             -4.4243209     -4.4243209     -0.51634099     160.98195            110   0.6833064      0.65599514   
      7850   0             -4.2817912     -4.2817912     -0.027997762    161.70907            108   0.66786606     0.6561304    
      7900   0             -4.0765734     -4.0765734     -0.077685982    165.56231            107   0.64628237     0.65516041   
      7950   0             -4.2089456     -4.2089456     -0.6445394      163.14273            106   0.64973781     0.65397334   
      8000   0             -4.4204382     -4.4204382      0.068354952    153.20405            106   0.69188773     0.65499714   
      8050   0             -4.3450871     -4.3450871     -0.32263898     154.64191            104   0.67252143     0.65617453   
      8100   0             -4.3166118     -4.3166118     -0.33509741     155.49698            105   0.67525426     0.65730815   
      8150   0             -4.3285806     -4.3285806     -0.99725096     158.08348            104   0.65788025     0.65912845   
      8200   0             -4.3137036     -4.3137036     -0.90575409     156.57433            103   0.65783454     0.66074814   
      8250   0             -4.4000155     -4.4000155     -0.56528368     153.34231            104   0.67822116     0.6622781    
      8300   0             -4.5178896     -4.5178896     -0.68558119     151.53412            104   0.68631408     0.66410386   
      8350   0             -4.4290843     -4.4290843     -0.16558568     148.85204            103   0.6919623      0.66548367   
      8400   0             -4.4980681     -4.4980681     -0.20608388     147.04373            103   0.70047188     0.66695071   
      8450   0             -4.3724833     -4.3724833     -0.86704521     153.72589            102   0.6635187      0.6683803    
      8500   0             -4.4834532     -4.4834532     -0.2030125      148.99432            103   0.69130154     0.67026187   
      8550   0             -4.4166938     -4.4166938     -0.7227708      155.63127            104   0.66824617     0.67224631   
      8600   0             -4.2453419     -4.2453419     -0.58759042     158.45177            104   0.65635113     0.67384646   
      8650   0             -4.4120089     -4.4120089     -0.49092333     157.33834            106   0.67370735     0.67416934   
      8700   0             -4.4143544     -4.4143544     -0.18487714     157.01349            107   0.68147013     0.67467825   
      8750   0             -4.4836978     -4.4836978     -0.62580565     160.03473            110   0.68735082     0.67512284   
      8800   0             -4.6158893     -4.6158893     -0.51254433     153.48981            109   0.71014488     0.67614761   
      8850   0             -4.6704399     -4.6704399     -0.28252249     150.02043            108   0.71990195     0.67831227   
      8900   0             -4.6166543     -4.6166543     -0.67137275     153.03043            107   0.69920735     0.68117838   
      8950   0             -4.6183709     -4.6183709     -0.37683539     150.38585            106   0.70485355     0.68405511   
      9000   0             -4.580146      -4.580146      -0.84809798     153.34245            105   0.68474188     0.68543055   
      9050   0             -4.6393627     -4.6393627      0.021877007    147.71158            106   0.71761468     0.68683761   
      9100   0             -4.6232756     -4.6232756      0.59018897     146.55365            106   0.72328461     0.6883855    
      9150   0             -4.6233891     -4.6233891     -0.5982551      153.05013            106   0.69258355     0.68948914   
      9200   0             -4.4656285     -4.4656285      0.050082725    155.91176            110   0.70552729     0.69013265   
      9250   0             -4.4535517     -4.4535517     -0.5563206      160.64845            110   0.68472492     0.68997902   
      9300   0             -4.6072315     -4.6072315     -0.073884828    150.98648            108   0.71529582     0.69002327   
      9350   0             -4.5918798     -4.5918798     -0.18571202     151.04115            107   0.70841624     0.69105388   
      9400   0             -4.578101      -4.578101      -0.56572631     151.91058            106   0.6977789      0.69195623   
      9450   0             -4.59837       -4.59837       -0.055252435    149.66494            107   0.71493031     0.69287995   
      9500   0             -4.4517148     -4.4517148     -0.51208514     156.28673            107   0.68463905     0.6941165    
      9550   0             -4.3892071     -4.3892071     -0.65384288     156.80191            107   0.68238966     0.69425524   
      9600   0             -4.5192711     -4.5192711     -0.59358081     154.60999            108   0.69853184     0.69504655   
      9650   0             -4.7497493     -4.7497493      0.051334133    143.35044            106   0.73944661     0.69780728   
      9700   0             -4.4649609     -4.4649609     -0.87239033     154.75635            105   0.6784859      0.69977716   
      9750   0             -4.3658413     -4.3658413     -0.57591877     153.72859            104   0.67651697     0.7000685    
      9800   0             -4.3694929     -4.3694929     -0.9324702      159.08441            105   0.66002695     0.69908409   
      9850   0             -4.4627475     -4.4627475     -0.92326946     154.97721            104   0.6710664      0.69812296   
      9900   0             -4.4200883     -4.4200883     -0.22903476     151.4351             104   0.68676283     0.69723303   
      9950   0             -4.3999478     -4.3999478     -0.27716819     154.26507            105   0.68064664     0.69617901   
     10000   0             -4.2871432     -4.2871432      0.024684769    155.95516            106   0.67968256     0.69472067   
     10050   0             -4.3737952     -4.3737952     -0.025869724    150.61112            103   0.68388046     0.69334751   
     10100   0             -4.3977701     -4.3977701      0.2628731      150.34609            104   0.69173732     0.69199277   
     10150   0             -4.3109967     -4.3109967     -0.24646866     154.03778            101   0.65568328     0.69075523   
     10200   0             -4.2679484     -4.2679484     -0.44485234     156.86288            103   0.65662446     0.68901344   
     10250   0             -4.402296      -4.402296      -0.82144345     158.69114            105   0.66166265     0.68832443   
Loop time of 42.9285 on 4 procs for 10000 steps with 105 atoms

Performance: 100632.375 tau/day, 232.945 timesteps/s, 24.459 katom-step/s
99.8% CPU use with 4 MPI tasks x 1 OpenMP threads

MPI task timing breakdown:
Section |  min time  |  avg time  |  max time  |%varavg| %total
---------------------------------------------------------------
Pair    | 0.14511    | 0.16129    | 0.18345    |   3.7 |  0.38
Neigh   | 0.4868     | 0.51228    | 0.53923    |   3.1 |  1.19
Comm    | 0.26911    | 0.32969    | 0.37189    |   7.7 |  0.77
Output  | 0.0033593  | 0.003541   | 0.004006   |   0.5 |  0.01
Modify  | 41.895     | 41.904     | 41.916     |   0.1 | 97.61
Other   |            | 0.01801    |            |       |  0.04

Nlocal:          26.25 ave          29 max          23 min
Histogram: 1 0 0 0 0 1 1 0 0 1
Nghost:            474 ave         483 max         463 min
Histogram: 1 0 0 0 0 1 0 1 0 1
Neighs:          782.5 ave         907 max         682 min
Histogram: 1 0 1 0 0 1 0 0 0 1

Total # of neighbors = 3130
Ave neighs/atom = 29.809524
Neighbor list builds = 496323
Dangerous builds = 0
Total wall time: 0:00:42
