LAMMPS (10 Sep 2025 - Development - patch_10Sep2025-659-gb375467373-modified)
Processor partition = 1
OMP_NUM_THREADS environment is not set. Defaulting to 1 thread.
  using 1 OpenMP thread(s) per MPI task
#mpirun -np 5 $LMPGIT/build/lmp -in in.gemc.lj -p 1 4 -var nsteps 80 -var ntranslate 3 -var nexchange 0 -var nvolume 1
# 3d Lennard-Jones melt to vapor-liquid mixture GEMC
# mpirun -np 5 ./lmp -in in.gemc.lj -p 1 4

variable        temp index 1.0
variable        ntranslate index 10
variable        nexchange index 10
variable        nvolume index 10
variable        displace index 0.5
variable        max_dlogvolratio index 0.5
variable        nsteps index 10000

units           lj
atom_style      atomic

# initialize gas state in partition 1

partition       yes 1 lattice fcc 0.05
partition       yes 1 region box block 0 1 0 1 0 1

# initialize liquid state in partition 2

partition       yes 2 lattice fcc 0.6
lattice fcc 0.6
Lattice spacing in x,y,z = 1.8820721 1.8820721 1.8820721
partition       yes 2 region box block 0 3 0 3 0 3
region box block 0 3 0 3 0 3

create_box      1 box
Created orthogonal box = (0 0 0) to (5.6462162 5.6462162 5.6462162)
  1 by 2 by 2 MPI processor grid
create_atoms    1 box
Created 108 atoms
  using lattice units in orthogonal box = (0 0 0) to (5.6462162 5.6462162 5.6462162)
  create_atoms CPU = 0.000 seconds
mass            1 1.0

velocity        all create 3.0 87287 loop geom

pair_style      lj/cut 2.5
pair_coeff      1 1 1.0 1.0 2.5

neighbor        0.3 bin
neigh_modify    every 1 delay 5 check yes

fix             1 all nve

thermo          50
thermo_style    custom step temp pe etotal press vol atoms density
run             250
Generated 0 of 0 mixed pair_coeff terms from geometric mixing rule
Neighbor list info ...
  update: every = 1 steps, delay = 5 steps, check = yes
  max neighbors/atom: 2000, page size: 100000
  master list distance cutoff = 2.8
  ghost atom cutoff = 2.8
  binsize = 1.4, bins = 5 5 5
  1 neighbor lists, perpetual/occasional/extra = 1 0 0
  (1) pair lj/cut, perpetual
      attributes: half, newton on
      pair build: half/bin/atomonly/newton
      stencil: half/bin/3d
      bin: standard
Per MPI rank memory allocation (min/avg/max) = 3.061 | 3.061 | 3.061 Mbytes
   Step          Temp          PotEng         TotEng         Press          Volume        Atoms       Density    
         0   3             -4.1241917      0.33414167    -2.2227267      180                  108   0.6          
        50   2.196824      -2.9056637      0.35906085     4.0902344      180                  108   0.6          
       100   2.4296563     -3.2491278      0.36161142     3.0239251      180                  108   0.6          
       150   2.3933594     -3.1973246      0.35947343     2.9220808      180                  108   0.6          
       200   2.3489459     -3.1289633      0.36183139     3.38915        180                  108   0.6          
       250   2.5110637     -3.3703887      0.36133095     2.6457948      180                  108   0.6          
Loop time of 0.00765051 on 4 procs for 250 steps with 108 atoms

Performance: 14116710.097 tau/day, 32677.570 timesteps/s, 3.529 Matom-step/s
99.2% CPU use with 4 MPI tasks x 1 OpenMP threads

MPI task timing breakdown:
Section |  min time  |  avg time  |  max time  |%varavg| %total
---------------------------------------------------------------
Pair    | 0.00208    | 0.0022422  | 0.002363   |   0.2 | 29.31
Neigh   | 0.0012482  | 0.0013234  | 0.0013896  |   0.2 | 17.30
Comm    | 0.003484   | 0.0036808  | 0.0039321  |   0.3 | 48.11
Output  | 5.2607e-05 | 5.3506e-05 | 5.4709e-05 |   0.0 |  0.70
Modify  | 0.0001001  | 0.00010752 | 0.00011431 |   0.0 |  1.41
Other   |            | 0.000243   |            |       |  3.18

Nlocal:             27 ave          33 max          21 min
Histogram: 1 0 0 0 1 1 0 0 0 1
Nghost:            453 ave         473 max         430 min
Histogram: 1 0 1 0 0 0 0 0 0 2
Neighs:            738 ave         903 max         508 min
Histogram: 1 0 0 0 0 1 0 1 0 1

Total # of neighbors = 2952
Ave neighs/atom = 27.333333
Neighbor list builds = 40
Dangerous builds = 4
unfix           1

velocity        all create 0.0 87287 loop geom

#   args: nevery ntranslate nexchange nvolume box_temp displace max_dlogvolratio seed
fix              2 all gemc 1 ${ntranslate} ${nexchange} ${nvolume} ${temp} ${displace} ${max_dlogvolratio} 29494
fix              2 all gemc 1 10 ${nexchange} ${nvolume} ${temp} ${displace} ${max_dlogvolratio} 29494
fix              2 all gemc 1 10 10 ${nvolume} ${temp} ${displace} ${max_dlogvolratio} 29494
fix              2 all gemc 1 10 10 10 ${temp} ${displace} ${max_dlogvolratio} 29494
fix              2 all gemc 1 10 10 10 1.0 ${displace} ${max_dlogvolratio} 29494
fix              2 all gemc 1 10 10 10 1.0 0.5 ${max_dlogvolratio} 29494
fix              2 all gemc 1 10 10 10 1.0 0.5 0.5 29494

variable        mydensity equal density
fix             3 all ave/time 1 50 50 v_mydensity ave window 20
thermo_style    custom step temp pe etotal press vol atoms density f_3

run             ${nsteps}
run             10000
WARNING: No fixes with time integration, atoms won't move
For more information see https://docs.lammps.org/err0028 (src/verlet.cpp:60)
Generated 0 of 0 mixed pair_coeff terms from geometric mixing rule
0 atoms in group FixGEMC:gemc_exclusion_group:2
Per MPI rank memory allocation (min/avg/max) = 3.066 | 3.069 | 3.071 Mbytes
   Step          Temp          PotEng         TotEng         Press          Volume        Atoms       Density          f_3      
       250   0             -3.3703887     -3.3703887      1.153107       180                  108   0.6            0            
       300   0             -3.5644349     -3.5644349     -0.43155675     192.84718            110   0.57039984     0.56297387   
       350   0             -3.8655074     -3.8655074     -0.61121704     177.67861            108   0.60783905     0.5773811    
       400   0             -3.8170055     -3.8170055     -0.60866575     182.43554            109   0.5974713      0.58844531   
       450   0             -3.9294874     -3.9294874     -0.098976303    171.61943            107   0.62347252     0.59460074   
       500   0             -3.8781167     -3.8781167     -0.41598154     173.10539            107   0.61812054     0.5984308    
       550   0             -3.898904      -3.898904      -0.59664419     172.54681            105   0.60853053     0.60034187   
       600   0             -3.9503421     -3.9503421     -0.34950725     166.83303            104   0.62337776     0.60336723   
       650   0             -4.1356537     -4.1356537     -0.48281302     166.35454            107   0.64320458     0.60894447   
       700   0             -4.2292246     -4.2292246     -0.55746559     167.34587            110   0.65732128     0.61470049   
       750   0             -4.2065458     -4.2065458     -0.6822789      168.86703            110   0.65140009     0.61808722   
       800   0             -4.3105465     -4.3105465     -0.12391217     156.22527            107   0.68490839     0.62236377   
       850   0             -4.4150539     -4.4150539     -0.47908755     157.78586            108   0.68447196     0.62664988   
       900   0             -4.273833      -4.273833      -0.83355544     162.44291            107   0.65869294     0.63123721   
       950   0             -4.2954479     -4.2954479      0.32596294     153.89209            106   0.68879433     0.63357465   
      1000   0             -4.3769554     -4.3769554     -0.59324504     160.69164            109   0.67831782     0.6363595    
      1050   0             -4.3386576     -4.3386576     -1.01355        162.03708            107   0.66034268     0.63862525   
      1100   0             -4.4497443     -4.4497443     -0.00141843     152.9487             107   0.69958095     0.64143139   
      1150   0             -4.5435609     -4.5435609     -0.14547764     151.85577            108   0.71120117     0.64415444   
      1200   0             -4.5133061     -4.5133061     -0.2864263      153.02959            107   0.69921119     0.64728311   
      1250   0             -4.5389587     -4.5389587     -0.98978424     157.92902            108   0.68385151     0.64990979   
      1300   0             -4.4787041     -4.4787041      0.10665413     157.0655             109   0.69397798     0.65647621   
      1350   0             -4.5368397     -4.5368397     -0.4899689      161.39714            111   0.68774454     0.66074619   
      1400   0             -4.3308091     -4.3308091     -0.026731146    161.65567            109   0.67427268     0.66374192   
      1450   0             -4.1694599     -4.1694599     -0.48419228     167.80723            107   0.63763643     0.66584311   
      1500   0             -4.1240108     -4.1240108     -1.0240564      174.92398            109   0.62312784     0.66719402   
      1550   0             -4.3211291     -4.3211291     -0.38486022     166.9446             111   0.66489123     0.66973315   
      1600   0             -4.2790564     -4.2790564     -1.1188543      173.5246             111   0.63967874     0.67165944   
      1650   0             -4.3779282     -4.3779282     -0.30901912     160.08997            108   0.67462065     0.67272294   
      1700   0             -4.4240614     -4.4240614     -0.47477561     161.49361            108   0.66875711     0.67295127   
      1750   0             -4.4272821     -4.4272821     -0.87510699     162.69556            108   0.66381653     0.67429627   
      1800   0             -4.4098575     -4.4098575     -0.47914974     157.90628            107   0.67761715     0.67422709   
      1850   0             -4.4571164     -4.4571164     -0.01033923     156.62644            110   0.70230797     0.67485938   
      1900   0             -4.3879969     -4.3879969     -1.0040681      166.42572            111   0.66696421     0.67491741   
      1950   0             -4.5800828     -4.5800828     -0.63035611     157.47749            110   0.69851254     0.67617016   
      2000   0             -4.526018      -4.526018      -0.49864696     158.02795            108   0.68342339     0.67677134   
      2050   0             -4.4852611     -4.4852611     -0.45559654     161.259              110   0.68213248     0.67721175   
      2100   0             -4.4361641     -4.4361641     -0.29047296     158.59036            108   0.68099976     0.67629036   
      2150   0             -4.48005       -4.48005        0.047435264    155.67339            108   0.6937602      0.67568707   
      2200   0             -4.3986057     -4.3986057     -1.0161358      166.4996             110   0.66066226     0.6747513    
      2250   0             -4.2661406     -4.2661406     -0.40989799     167.68898            111   0.66193972     0.67286907   
      2300   0             -4.3502361     -4.3502361     -0.51214953     159.55798            107   0.67060264     0.67122425   
      2350   0             -4.3967959     -4.3967959     -0.53943072     158.21849            107   0.67627999     0.67116118   
      2400   0             -4.3896479     -4.3896479     -0.11934262     154.01925            106   0.68822567     0.67201801   
      2450   0             -4.4082786     -4.4082786     -0.2289851      152.49933            104   0.68197022     0.67307436   
      2500   0             -4.2292697     -4.2292697     -0.42292264     154.55819            101   0.65347556     0.67388548   
      2550   0             -4.1315143     -4.1315143     -1.0346796      168.90271            106   0.62758024     0.67384158   
      2600   0             -4.3529456     -4.3529456     -0.67104888     161.58673            108   0.66837173     0.67398995   
      2650   0             -4.3117423     -4.3117423     -0.25102151     159.09271            107   0.67256381     0.67399355   
      2700   0             -4.2201947     -4.2201947     -0.66735768     159.6622             104   0.65137523     0.67435169   
      2750   0             -4.1863635     -4.1863635     -0.34325223     158.49858            104   0.6561573      0.67331113   
      2800   0             -4.2234747     -4.2234747     -0.31783297     156.76387            103   0.65703916     0.67234587   
      2850   0             -4.2256045     -4.2256045     -0.11721541     156.98316            104   0.66249144     0.67111794   
      2900   0             -3.9621944     -3.9621944     -0.9089662      173.13839            106   0.61222703     0.66836238   
      2950   0             -4.1940046     -4.1940046     -0.24756021     167.27977            110   0.65758102     0.66570703   
      3000   0             -4.2148792     -4.2148792     -0.026106164    163.26341            108   0.66150768     0.66430577   
      3050   0             -4.1874607     -4.1874607     -0.85207359     168.65847            108   0.64034731     0.66293073   
      3100   0             -4.0878461     -4.0878461     -0.11785295     163.66038            106   0.64768274     0.6621436    
      3150   0             -4.0291746     -4.0291746     -0.71947799     171.01767            104   0.60812429     0.65957177   
      3200   0             -4.1226153     -4.1226153     -0.37155524     169.93431            109   0.64142433     0.65724411   
      3250   0             -3.9450899     -3.9450899     -0.6157343      181.37389            111   0.61199546     0.65526478   
      3300   0             -3.9166614     -3.9166614     -0.83419036     181.40341            108   0.59535817     0.65296739   
      3350   0             -3.9804755     -3.9804755     -0.60278811     178.4958             108   0.60505626     0.65006537   
      3400   0             -4.0191543     -4.0191543     -0.76772593     179.89215            110   0.61147749     0.6468664    
      3450   0             -3.9863672     -3.9863672     -0.57181932     180.45387            108   0.59849092     0.64434531   
      3500   0             -4.0227092     -4.0227092     -0.25475302     177.03318            111   0.62700111     0.64236688   
      3550   0             -3.9847662     -3.9847662     -0.40235145     173.68481            109   0.62757358     0.64072703   
      3600   0             -4.0877433     -4.0877433     -0.52204144     171.54134            108   0.62958585     0.63921633   
      3650   0             -4.1197051     -4.1197051     -0.42830837     169.87577            109   0.64164536     0.63782235   
      3700   0             -4.1110377     -4.1110377     -0.26605776     170.0011             109   0.64117231     0.63585661   
      3750   0             -3.9895526     -3.9895526     -0.78979084     178.27916            108   0.60579149     0.63463298   
      3800   0             -3.9219354     -3.9219354     -0.25374195     174.20361            107   0.61422379     0.63288011   
      3850   0             -3.8666975     -3.8666975     -0.003241914    177.85668            109   0.612853       0.63013969   
      3900   0             -3.7440078     -3.7440078     -0.021122836    179.8766             108   0.60041162     0.62774458   
      3950   0             -3.7962016     -3.7962016      0.22038311     177.64176            109   0.61359446     0.62512661   
      4000   0             -3.7360865     -3.7360865     -0.51830754     187.87332            109   0.58017817     0.62168529   
      4050   0             -4.0842539     -4.0842539     -0.50339853     173.34383            111   0.64034584     0.62006541   
      4100   0             -4.1841157     -4.1841157     -0.26911488     169.35172            111   0.65544065     0.61971221   
      4150   0             -4.124598      -4.124598      -0.72225918     171.28579            107   0.62468697     0.62077156   
      4200   0             -4.2169829     -4.2169829      0.14815079     165.50099            109   0.65860632     0.62075593   
      4250   0             -4.0126784     -4.0126784     -0.26797943     179.19085            111   0.61945126     0.62047927   
      4300   0             -3.9754136     -3.9754136     -0.10195699     174.81715            110   0.62922887     0.62050029   
      4350   0             -4.1968572     -4.1968572     -0.48961363     171.69037            111   0.64651266     0.62117702   
      4400   0             -4.0731011     -4.0731011     -0.7631119      175.39005            109   0.62147197     0.62208174   
      4450   0             -4.1702689     -4.1702689     -0.34317933     169.35791            110   0.64951202     0.62276648   
      4500   0             -4.1480471     -4.1480471     -0.1376002      162.80292            106   0.65109399     0.62388129   
      4550   0             -4.1239706     -4.1239706     -0.49424109     168.23228            106   0.63008123     0.62409621   
      4600   0             -3.9614395     -3.9614395     -0.2251913      166.52083            104   0.62454648     0.62368987   
      4650   0             -4.1252493     -4.1252493     -0.47784389     161.76745            103   0.63671649     0.62331945   
      4700   0             -4.0447573     -4.0447573     -0.059036914    160.99971            104   0.64596391     0.62378494   
      4750   0             -3.7465259     -3.7465259     -0.41757145     178.21624            106   0.59478305     0.6231147    
      4800   0             -3.8564356     -3.8564356     -0.94689302     184.85113            107   0.57884417     0.62198973   
      4850   0             -3.8564014     -3.8564014     -0.21539191     173.02511            106   0.61262784     0.62252877   
      4900   0             -3.6942021     -3.6942021     -0.53599099     187.47477            109   0.58141156     0.62328454   
      4950   0             -3.7346845     -3.7346845     -0.31091707     185.14974            110   0.59411373     0.62320425   
      5000   0             -3.7392442     -3.7392442     -0.70739245     195.96695            111   0.56642205     0.62293573   
      5050   0             -3.7504269     -3.7504269     -0.44819253     188.72915            108   0.57224864     0.62059913   
      5100   0             -3.8491605     -3.8491605     -0.23462142     180.59129            108   0.59803548     0.61787869   
      5150   0             -3.9055001     -3.9055001     -0.223799       180.23553            110   0.61031252     0.61522858   
      5200   0             -4.0517623     -4.0517623     -0.63451599     181.61927            111   0.61116863     0.61364004   
      5250   0             -3.9695364     -3.9695364     -0.47426259     183.03596            111   0.6064382      0.61328195   
      5300   0             -3.9439751     -3.9439751     -0.29156554     182.50042            111   0.60821779     0.61263715   
      5350   0             -3.97814       -3.97814       -0.43651689     181.11307            110   0.60735539     0.6109555    
      5400   0             -3.9243931     -3.9243931     -0.76271152     186.23356            111   0.59602575     0.60940267   
      5450   0             -4.0466257     -4.0466257     -0.12257509     174.23257            109   0.62560062     0.60793134   
      5500   0             -4.1638567     -4.1638567     -0.53197015     174.12735            111   0.63746446     0.60795681   
      5550   0             -4.1627622     -4.1627622     -0.83820723     174.28868            109   0.6253992      0.6084881    
      5600   0             -4.0822991     -4.0822991     -0.3639109      169.9752             107   0.62950361     0.60915643   
      5650   0             -4.1104933     -4.1104933     -0.34194324     172.98142            111   0.64168743     0.60971286   
      5700   0             -4.0545237     -4.0545237     -0.40455365     177.62234            111   0.62492139     0.60887966   
      5750   0             -4.0134584     -4.0134584     -0.53984525     179.00856            110   0.61449576     0.60904905   
      5800   0             -4.0879305     -4.0879305     -0.35999618     172.67506            109   0.63124344     0.61071247   
      5850   0             -4.1810254     -4.1810254     -0.28576955     168.78318            110   0.65172371     0.61123706   
      5900   0             -4.2515398     -4.2515398     -0.59542073     170.99697            111   0.6491343      0.61333878   
      5950   0             -4.2027167     -4.2027167     -0.48206692     169.89183            110   0.6474708      0.61682118   
      6000   0             -4.1693923     -4.1693923     -0.25856586     170.78208            110   0.64409567     0.61978261   
      6050   0             -4.1108608     -4.1108608     -0.26337469     172.33507            110   0.63829143     0.62263729   
      6100   0             -4.0140207     -4.0140207     -0.63419152     174.93467            105   0.60022407     0.6236779    
      6150   0             -4.0577475     -4.0577475     -0.58607281     168.3136             106   0.6297768      0.62507558   
      6200   0             -3.9579697     -3.9579697      0.19077445     163.90249            104   0.6345236      0.62624749   
      6250   0             -3.906475      -3.906475      -0.19288429     170.7094             104   0.60922247     0.62574353   
      6300   0             -3.839805      -3.839805      -0.7022627      176.1047              99   0.56216557     0.62522437   
      6350   0             -3.9190879     -3.9190879     -0.32671772     170.04651            104   0.61159737     0.62503389   
      6400   0             -3.9480262     -3.9480262     -0.054946705    164.24144            103   0.62712553     0.62487605   
      6450   0             -4.0703939     -4.0703939     -0.60217113     170.23558            107   0.62854076     0.6253588    
      6500   0             -3.8390843     -3.8390843     -0.30520356     173.2173             105   0.60617503     0.62443467   
      6550   0             -3.8979442     -3.8979442     -0.49028328     171.13746            103   0.60185536     0.62278511   
      6600   0             -3.864897      -3.864897      -0.25519048     161.05707             96   0.59606202     0.62083884   
      6650   0             -3.8976869     -3.8976869     -0.53862701     169.769              102   0.60081641     0.61849097   
      6700   0             -4.0051009     -4.0051009     -0.46541853     163.50463            101   0.61771952     0.61788602   
      6750   0             -3.8621725     -3.8621725     -0.67630217     160.43124             96   0.59838721     0.61785951   
      6800   0             -3.9665445     -3.9665445     -0.25999206     154.66161             94   0.60777851     0.61681519   
      6850   0             -4.0865855     -4.0865855     -0.28530416     153.155               98   0.63987464     0.61615457   
      6900   0             -4.2042844     -4.2042844     -1.1827912      157.63313             99   0.62804056     0.61623706   
      6950   0             -4.3217476     -4.3217476     -0.48761208     148.37839             99   0.66721305     0.61672118   
      7000   0             -4.3710503     -4.3710503     -0.30201558     147.48219            100   0.67804798     0.6180111    
      7050   0             -4.3070089     -4.3070089     -0.53938391     149.63916             99   0.66159152     0.62032741   
      7100   0             -4.1473234     -4.1473234     -0.34514538     152.70392             97   0.63521617     0.6221053    
      7150   0             -4.3947477     -4.3947477     -0.47464685     148.05815            100   0.67541032     0.62396011   
      7200   0             -4.6312775     -4.6312775     -0.079194789    141.4927             101   0.71381774     0.62743871   
      7250   0             -4.5286816     -4.5286816     -0.86983878     147.6834             101   0.68389543     0.63232365   
      7300   0             -4.5693373     -4.5693373     -0.60943792     147.43054            102   0.69185122     0.63743733   
      7350   0             -4.6822006     -4.6822006     -0.22770102     146.96174            107   0.72808065     0.64328237   
      7400   0             -4.6676202     -4.6676202     -0.050723393    146.20792            106   0.72499494     0.64858675   
      7450   0             -4.6338976     -4.6338976     -0.30852467     148.15576            105   0.70871359     0.65352037   
      7500   0             -4.6518533     -4.6518533      0.47652482     142.36302            104   0.73052679     0.65772557   
      7550   0             -4.5652468     -4.5652468     -0.64533198     152.52594            106   0.69496374     0.66254393   
      7600   0             -4.6802635     -4.6802635     -0.38104431     148.76074            106   0.71255361     0.6679524    
      7650   0             -4.6047035     -4.6047035     -1.0500361      157.54539            109   0.69186411     0.67360321   
      7700   0             -4.5216755     -4.5216755     -0.79741764     156.81931            107   0.68231394     0.67795038   
      7750   0             -4.3614688     -4.3614688     -0.15948126     155.43312            105   0.67553172     0.68068536   
      7800   0             -4.3047361     -4.3047361     -0.12288404     155.17768            105   0.6766437      0.6839456    
      7850   0             -4.4385581     -4.4385581     -0.80386708     158.75466            106   0.66769695     0.68698646   
      7900   0             -4.4739432     -4.4739432     -0.09774178     149.9601             104   0.69351782     0.68928076   
      7950   0             -4.4481154     -4.4481154     -0.71612292     154.15166            104   0.67466027     0.69031247   
      8000   0             -4.5408829     -4.5408829     -0.11797901     146.64869            103   0.70235883     0.69137382   
      8050   0             -4.3415839     -4.3415839     -0.14281722     152.98994            105   0.68631964     0.69166187   
      8100   0             -4.0204998     -4.0204998     -0.55440898     165.16365            104   0.62967849     0.69236671   
      8150   0             -4.2305102     -4.2305102     -0.7100983      158.92816            103   0.64809157     0.69179867   
      8200   0             -4.3440497     -4.3440497     -0.17393693     152.23824            102   0.6700025      0.69011176   
      8250   0             -4.4559964     -4.4559964     -0.48106493     153.56342            104   0.6772446      0.6885833    
      8300   0             -4.3791332     -4.3791332     -0.92689435     161.17876            105   0.65145061     0.68745228   
      8350   0             -4.4692754     -4.4692754     -0.071205971    156.61581            108   0.68958557     0.68567833   
      8400   0             -4.4772261     -4.4772261      0.19888661     153.59523            109   0.70965744     0.68440514   
      8450   0             -4.4556293     -4.4556293     -0.17224675     158.17615            110   0.69542722     0.68303784   
      8500   0             -4.3617497     -4.3617497     -0.62348094     165.1389             110   0.66610593     0.68138167   
      8550   0             -4.4008066     -4.4008066     -0.89797887     166.39206            110   0.66108924     0.67995154   
      8600   0             -4.4596648     -4.4596648     -0.25478621     160.03248            111   0.69360919     0.6788771    
      8650   0             -4.4971784     -4.4971784     -0.6177193      157.85769            108   0.68416053     0.67758084   
      8700   0             -4.478014      -4.478014      -0.9173944      160.58397            109   0.67877263     0.67734643   
      8750   0             -4.5616498     -4.5616498     -0.11868081     153.15411            109   0.71170146     0.67851692   
      8800   0             -4.6107464     -4.6107464     -0.73827066     155.19953            109   0.70232172     0.68050516   
      8850   0             -4.6462757     -4.6462757     -0.059722951    150.43425            109   0.72456905     0.68236659   
      8900   0             -4.7811916     -4.7811916     -0.27286615     147.87927            108   0.73032551     0.6837223    
      8950   0             -4.7754965     -4.7754965     -0.70577118     149.88335            108   0.72056033     0.68607144   
      9000   0             -4.6887965     -4.6887965     -0.34830654     147.85707            106   0.71690858     0.68722648   
      9050   0             -4.5849795     -4.5849795     -0.65376216     150.60938            105   0.69716774     0.68856186   
      9100   0             -4.6748638     -4.6748638     -0.44327203     147.18414            105   0.71339209     0.69113651   
      9150   0             -4.5879746     -4.5879746     -0.37667927     148.21918            104   0.70166356     0.69372439   
      9200   0             -4.6138366     -4.6138366     -0.74554691     147.34465            102   0.69225453     0.69508938   
      9250   0             -4.4762699     -4.4762699     -0.40752374     149.83213            104   0.69411013     0.696845     
      9300   0             -4.5337209     -4.5337209     -0.44077909     149.01119            104   0.69793417     0.69827855   
      9350   0             -4.5047656     -4.5047656     -0.022789831    148.35055            105   0.70778302     0.6989866    
      9400   0             -4.4602384     -4.4602384     -1.0124412      154.17805            104   0.6745448      0.69916026   
      9450   0             -4.5779836     -4.5779836     -0.40917213     146.5617             103   0.70277568     0.6997095    
      9500   0             -4.606794      -4.606794      -0.42122033     145.99589            103   0.70549931     0.70130488   
      9550   0             -4.4812713     -4.4812713     -0.30449782     147.52207            102   0.69142199     0.7019511    
      9600   0             -4.3004765     -4.3004765     -0.25417683     152.31653            102   0.6696581      0.70165382   
      9650   0             -4.2592135     -4.2592135      0.51680877     149.28346            102   0.68326392     0.70066264   
      9700   0             -4.1470691     -4.1470691     -0.53347065     157.22205            100   0.63604311     0.69832806   
      9750   0             -4.0636477     -4.0636477     -0.29955845     154.61223             97   0.627376       0.69562375   
      9800   0             -4.1126368     -4.1126368     -0.6331941      154.8332              98   0.63293919     0.69188876   
      9850   0             -4.0074742     -4.0074742     -0.44071639     157.63615             97   0.61534109     0.68767087   
      9900   0             -4.1565837     -4.1565837      0.016741353    152.53695             99   0.64902307     0.68383622   
      9950   0             -4.1660486     -4.1660486     -0.42124169     152.80307            100   0.65443713     0.67969936   
     10000   0             -4.1887364     -4.1887364     -0.91894217     157.43418            100   0.63518609     0.67708751   
     10050   0             -4.2088658     -4.2088658     -0.60203898     154.19865            100   0.64851412     0.67434865   
     10100   0             -4.2202148     -4.2202148      0.0022384723   150.83401            100   0.66298047     0.67142679   
     10150   0             -4.2835588     -4.2835588     -0.50300973     150.19131             99   0.65915932     0.66916113   
     10200   0             -4.0496197     -4.0496197     -0.50874561     157.02593             99   0.63046911     0.66724224   
     10250   0             -4.1303334     -4.1303334     -0.72786096     154.6833              98   0.63355257     0.66385624   
Loop time of 46.5985 on 4 procs for 10000 steps with 98 atoms

Performance: 92706.771 tau/day, 214.599 timesteps/s, 21.031 katom-step/s
97.4% CPU use with 4 MPI tasks x 1 OpenMP threads

MPI task timing breakdown:
Section |  min time  |  avg time  |  max time  |%varavg| %total
---------------------------------------------------------------
Pair    | 0.16341    | 0.17331    | 0.19455    |   3.0 |  0.37
Neigh   | 0.52774    | 0.55034    | 0.57304    |   2.5 |  1.18
Comm    | 0.31607    | 0.36989    | 0.40821    |   5.6 |  0.79
Output  | 0.0031385  | 0.0032982  | 0.0037562  |   0.5 |  0.01
Modify  | 45.473     | 45.479     | 45.489     |   0.1 | 97.60
Other   |            | 0.0227     |            |       |  0.05

Nlocal:           24.5 ave          27 max          23 min
Histogram: 2 0 0 0 0 1 0 0 0 1
Nghost:         460.25 ave         467 max         453 min
Histogram: 1 0 0 0 1 0 1 0 0 1
Neighs:            699 ave         730 max         647 min
Histogram: 1 0 0 0 0 0 1 0 1 1

Total # of neighbors = 2796
Ave neighs/atom = 28.530612
Neighbor list builds = 490994
Dangerous builds = 0
Total wall time: 0:00:46
