LAMMPS (11 Feb 2026 - Development - patch_10Dec2025-1372-ged4f75871d-modified)
variable number	equal 2
variable ofreq	equal 1000
variable efreq	equal 1000
variable T      equal 300.0
variable rhos   equal 0.2
variable nsteps equal 10000

units real

dimension 3

newton on

boundary  p p p

atom_style hybrid bond ellipsoid oxdna
WARNING: Atom style hybrid defines both, per-type and per-atom masses; both must be set, but only per-atom masses will be used (../atom_vec_hybrid.cpp:132)
atom_modify sort 0 8.518

# Pair interactions require lists of neighbours to be calculated
neighbor 17.036 bin
neigh_modify every 1 delay 0 check yes

read_data data.duplex2
Reading data file ...
  orthogonal box = (-170 -170 -170) to (170 170 170)
  1 by 1 by 1 MPI processor grid
  reading atoms ...
  16 atoms
  reading velocities ...
  16 velocities
  scanning bonds ...
  1 = max bonds/atom
  16 ellipsoids
  orthogonal box = (-170 -170 -170) to (170 170 170)
  1 by 1 by 1 MPI processor grid
  reading bonds ...
  13 bonds
Finding 1-2 1-3 1-4 neighbors ...
  special bond factors lj:    0        0        0       
  special bond factors coul:  0        0        0       
     2 = max # of 1-2 neighbors
     2 = max # of 1-3 neighbors
     4 = max # of 1-4 neighbors
     6 = max # of special neighbors
  special bonds CPU = 0.000 seconds
  read_data CPU = 0.008 seconds

set atom * mass 315.75
Setting atom values ...
  16 settings made for mass

group all type 1 4
16 atoms in group all

# oxDNA3 bond interactions - FENE backbone
bond_style hybrid oxdna3/fene
bond_coeff * oxdna3/fene oxdna3_real.cgdna
Reading oxdna3 potential (fene) file oxdna3_real.cgdna with DATE: 2026-03-04
special_bonds lj 0 1 1
Finding 1-2 1-3 1-4 neighbors ...
  special bond factors lj:    0        1        1       
  special bond factors coul:  0        0        0       
     2 = max # of 1-2 neighbors
     2 = max # of 1-3 neighbors
     4 = max # of 1-4 neighbors
     6 = max # of special neighbors
  special bonds CPU = 0.000 seconds

# oxDNA3 pair interactions
pair_style hybrid/overlay oxdna3/excv oxdna3/stk oxdna3/hbond oxdna3/xstk oxdna3/coaxstk oxdna3/dh
pair_coeff * * oxdna3/excv     oxdna3_real.cgdna
Reading oxdna3 potential (excv) file oxdna3_real.cgdna with DATE: 2026-03-04
pair_coeff * * oxdna3/stk      ${T} oxdna3_real.cgdna
pair_coeff * * oxdna3/stk      300 oxdna3_real.cgdna
Reading oxdna3 potential (stk) file oxdna3_real.cgdna with DATE: 2026-03-04
pair_coeff * * oxdna3/hbond    oxdna3_real.cgdna
Reading oxdna3 potential (hbond) file oxdna3_real.cgdna with DATE: 2026-03-04
pair_coeff 1 4 oxdna3/hbond    oxdna3_real.cgdna
Reading oxdna3 potential (hbond) file oxdna3_real.cgdna with DATE: 2026-03-04
pair_coeff 2 3 oxdna3/hbond    oxdna3_real.cgdna
Reading oxdna3 potential (hbond) file oxdna3_real.cgdna with DATE: 2026-03-04
pair_coeff * * oxdna3/xstk     oxdna3_real.cgdna
Reading oxdna3 potential (xstk) file oxdna3_real.cgdna with DATE: 2026-03-04
pair_coeff * * oxdna3/coaxstk  oxdna3_real.cgdna
Reading oxdna potential (coaxstk) file oxdna3_real.cgdna with DATE: 2026-03-04
pair_coeff * * oxdna3/dh       ${T} ${rhos} oxdna3_real.cgdna #no_3p_charge
pair_coeff * * oxdna3/dh       300 ${rhos} oxdna3_real.cgdna 
pair_coeff * * oxdna3/dh       300 0.2 oxdna3_real.cgdna 
Reading oxdna potential (dh) file oxdna3_real.cgdna with DATE: 2026-03-04

# NVE ensemble
fix 1 all nve/asphere
#fix 2 all langevin ${T} ${T} 4265.0 457145 angmom 10

timestep 0.017055

#comm_style tiled
fix 3 all balance 1000 1.03 shift xyz 10 1.03
comm_modify cutoff 32.4

compute quat all property/atom quatw quati quatj quatk

compute erot all erotate/asphere
compute ekin all ke
compute epot all pe

compute ebond all bond
compute eexcv all pair oxdna3/excv
compute estk  all pair oxdna3/stk
compute ehbond all pair oxdna3/hbond
compute exstk all pair oxdna3/xstk
compute ecoaxstk all pair oxdna3/coaxstk
compute edh all pair oxdna3/dh

variable erot equal c_erot
variable ekin equal c_ekin
variable edyn equal c_erot+c_ekin
variable epot equal c_epot
variable etot equal c_erot+c_ekin+c_epot

variable ebond equal c_ebond[1]
variable eexcv equal c_eexcv
variable estk equal c_estk
variable ehbond equal c_ehbond
variable exstk equal c_exstk
variable ecoaxstk equal c_ecoaxstk
variable edh equal c_edh

fix 5 all print ${efreq} "$(step)  ekin = ${ekin} |  erot = ${erot} | edyn = ${edyn} | ebond = ${ebond} | eexcv = ${eexcv} | estk = ${estk} | ehbond = ${ehbond} | exstk = ${exstk} | ecoaxstk = ${ecoaxstk} | edh = ${edh} | epot = ${epot} | etot = ${etot}" screen yes
fix 5 all print 1000 "$(step)  ekin = ${ekin} |  erot = ${erot} | edyn = ${edyn} | ebond = ${ebond} | eexcv = ${eexcv} | estk = ${estk} | ehbond = ${ehbond} | exstk = ${exstk} | ecoaxstk = ${ecoaxstk} | edh = ${edh} | epot = ${epot} | etot = ${etot}" screen yes

#dump out all custom ${ofreq} out.${number}.lammpstrj id mol type x y z ix iy iz vx vy vz c_quat[1] c_quat[2] c_quat[3] c_quat[4] angmomx angmomy angmomz
#dump_modify out sort id
#dump_modify out format line "%d %d %d  %22.15le %22.15le %22.15le  %d %d %d  %22.15le %22.15le %22.15le  %22.15le %22.15le %22.15le %22.15le  %22.15le %22.15le %22.15le"

run ${nsteps}
run 10000
Generated 0 of 6 mixed pair_coeff terms from geometric mixing rule
Neighbor list info ...
  update: every = 1 steps, delay = 0 steps, check = yes
  max neighbors/atom: 2000, page size: 100000
  master list distance cutoff = 48.032697
  ghost atom cutoff = 48.032697
  binsize = 24.016348, bins = 15 15 15
  5 neighbor lists, perpetual/occasional/extra = 5 0 0
  (1) pair oxdna3/excv, perpetual
      attributes: half, newton on
      pair build: half/bin/newton
      stencil: half/bin/3d
      bin: standard
  (2) pair oxdna3/hbond, perpetual, copy from (1)
      attributes: half, newton on
      pair build: copy
      stencil: none
      bin: none
  (3) pair oxdna3/xstk, perpetual, copy from (1)
      attributes: half, newton on
      pair build: copy
      stencil: none
      bin: none
  (4) pair oxdna3/coaxstk, perpetual, copy from (1)
      attributes: half, newton on
      pair build: copy
      stencil: none
      bin: none
  (5) pair oxdna3/dh, perpetual, copy from (1)
      attributes: half, newton on
      pair build: copy
      stencil: none
      bin: none
WARNING: Communication cutoff adjusted to 48.03269686950012 (../comm.cpp:703)
0  ekin = 16.124695569505 |  erot = 16.7027740772248 | edyn = 32.8274696467298 | ebond = 13.3002649732023 | eexcv = 0 | estk = -88.4539556399985 | ehbond = -23.1874921105582 | exstk = -13.4481492138421 | ecoaxstk = -0.989675900531242 | edh = 2.23191399215345 | epot = -110.547093899574 | etot = -77.7196242528445
Per MPI rank memory allocation (min/avg/max) = 8.832 | 8.832 | 8.832 Mbytes
   Step          Temp          E_pair         E_mol          TotEng         Press          Volume    
         0   360.63341     -123.84736      13.300265     -94.422398     -0.098320051    39304000     
1000  ekin = 16.2997419685528 |  erot = 16.7883535241843 | edyn = 33.0880954927372 | ebond = 12.5083969171378 | eexcv = 0 | estk = -87.8055715059968 | ehbond = -23.0602574831264 | exstk = -13.6814739644462 | ecoaxstk = -0.998059504435703 | edh = 2.22924579256786 | epot = -110.807719748299 | etot = -77.7196242555623
2000  ekin = 16.6343143413108 |  erot = 17.0642982851186 | edyn = 33.6986126264295 | ebond = 11.4640034285219 | eexcv = 0 | estk = -87.1936824656578 | ehbond = -22.8939009218747 | exstk = -14.0181132646455 | ecoaxstk = -1.00301021675392 | edh = 2.22646654651665 | epot = -111.418236893893 | etot = -77.719624267464
3000  ekin = 17.0612909051377 |  erot = 17.4981963151839 | edyn = 34.5594872203216 | ebond = 10.2618799533293 | eexcv = 0 | estk = -86.5990652895211 | ehbond = -22.736623362865 | exstk = -14.4239448440539 | ecoaxstk = -1.00496717090724 | edh = 2.22360922300038 | epot = -112.279111491017 | etot = -77.7196242706958
4000  ekin = 17.5368264019429 |  erot = 18.064672276657 | edyn = 35.6014986785999 | ebond = 8.9906839071059 | eexcv = 0 | estk = -85.9997145917973 | ehbond = -22.6330813894408 | exstk = -14.895369275359 | ecoaxstk = -1.00434141054137 | edh = 2.22069980619334 | epot = -113.321122953839 | etot = -77.7196242752393
5000  ekin = 18.0154581666236 |  erot = 18.7259680577537 | edyn = 36.7414262243773 | ebond = 7.73271502949965 | eexcv = 0 | estk = -85.3768704836865 | ehbond = -22.6113730052162 | exstk = -15.4217589316793 | ecoaxstk = -1.00152215607828 | edh = 2.21775904234405 | epot = -114.461050504817 | etot = -77.7196242804392
6000  ekin = 18.4549477029171 |  erot = 19.4350369488812 | edyn = 37.8899846517983 | ebond = 6.56313312631898 | eexcv = 0 | estk = -84.7223336416823 | ehbond = -22.6849017025033 | exstk = -15.9834331965162 | ecoaxstk = -0.996877558680321 | edh = 2.21480403575569 | epot = -115.609608937307 | etot = -77.7196242855092
7000  ekin = 18.823214713429 |  erot = 20.1403819744413 | edyn = 38.9635966878703 | ebond = 5.54801387765209 | eexcv = 0 | estk = -84.0447978564421 | ehbond = -22.8553671996478 | exstk = -16.5521708684437 | ecoaxstk = -0.990749973419715 | edh = 2.21185104259541 | epot = -116.683220977706 | etot = -77.7196242898356
8000  ekin = 18.258375875088 |  erot = 21.2306979088806 | edyn = 39.4890737839686 | ebond = 4.74301233060377 | eexcv = 0.512731179541184 | estk = -83.4924449308391 | ehbond = -23.1183538855874 | exstk = -17.0790960845657 | ecoaxstk = -0.983447717167937 | edh = 2.20890108737706 | epot = -117.208698020638 | etot = -77.7196242366695
9000  ekin = 18.409964413153 |  erot = 22.857535036321 | edyn = 41.267499449474 | ebond = 4.19090552622297 | eexcv = 0 | estk = -83.4384217292398 | ehbond = -23.4755564019375 | exstk = -17.4947607969643 | ecoaxstk = -0.975235542580543 | edh = 2.20594500159586 | epot = -118.987123942903 | etot = -77.7196244934293
10000  ekin = 18.8184994455431 |  erot = 23.5119704038209 | edyn = 42.330469849364 | ebond = 3.91604439761997 | eexcv = 0 | estk = -83.5054183795429 | ehbond = -23.8910598267206 | exstk = -17.8064132103537 | ecoaxstk = -0.966325264369924 | edh = 2.20307793369021 | epot = -120.050094349677 | etot = -77.7196245003129
     10000   420.88111     -123.96614      3.9160444     -101.23159     -0.055313659    39304000     
Loop time of 0.131312 on 1 procs for 10000 steps with 16 atoms

Performance: 112.218 ns/day, 0.214 hours/ns, 76154.502 timesteps/s, 1.218 Matom-step/s
99.7% CPU use with 1 MPI tasks x no OpenMP threads

MPI task timing breakdown:
Section |  min time  |  avg time  |  max time  |%varavg| %total
---------------------------------------------------------------
Pair    | 0.11547    | 0.11547    | 0.11547    |   0.0 | 87.93
Bond    | 0.003748   | 0.003748   | 0.003748   |   0.0 |  2.85
Neigh   | 4.2e-05    | 4.2e-05    | 4.2e-05    |   0.0 |  0.03
Comm    | 0.000908   | 0.000908   | 0.000908   |   0.0 |  0.69
Output  | 4e-06      | 4e-06      | 4e-06      |   0.0 |  0.00
Modify  | 0.010313   | 0.010313   | 0.010313   |   0.0 |  7.85
Other   |            | 0.00083    |            |       |  0.63

Nlocal:             16 ave          16 max          16 min
Histogram: 1 0 0 0 0 0 0 0 0 0
Nghost:              0 ave           0 max           0 min
Histogram: 1 0 0 0 0 0 0 0 0 0
Neighs:            120 ave         120 max         120 min
Histogram: 1 0 0 0 0 0 0 0 0 0

Total # of neighbors = 120
Ave neighs/atom = 7.5
Ave special neighs/atom = 3.75
Neighbor list builds = 10
Dangerous builds = 0

#write_data last_config.${number}.* nocoeff
#write_restart last_config.${number}.*
Total wall time: 0:00:00
