LAMMPS (11 Feb 2026 - Development - patch_10Dec2025-1364-g0853651693-modified)
variable number	equal 2
variable ofreq	equal 1000
variable efreq	equal 1000
variable T      equal 300.0
variable rhos   equal 0.2
variable nsteps equal 10000

units real

dimension 3

newton on

boundary  p p p

atom_style hybrid bond ellipsoid oxdna
WARNING: Atom style hybrid defines both, per-type and per-atom masses; both must be set, but only per-atom masses will be used (../atom_vec_hybrid.cpp:132)
atom_modify sort 0 8.518

# Pair interactions require lists of neighbours to be calculated
neighbor 17.036 bin
neigh_modify every 1 delay 0 check yes

read_data data.duplex2
Reading data file ...
  orthogonal box = (-170 -170 -170) to (170 170 170)
  1 by 2 by 2 MPI processor grid
  reading atoms ...
  16 atoms
  reading velocities ...
  16 velocities
  scanning bonds ...
  1 = max bonds/atom
  16 ellipsoids
  orthogonal box = (-170 -170 -170) to (170 170 170)
  1 by 2 by 2 MPI processor grid
  reading bonds ...
  13 bonds
Finding 1-2 1-3 1-4 neighbors ...
  special bond factors lj:    0        0        0       
  special bond factors coul:  0        0        0       
     2 = max # of 1-2 neighbors
     2 = max # of 1-3 neighbors
     4 = max # of 1-4 neighbors
     6 = max # of special neighbors
  special bonds CPU = 0.000 seconds
  read_data CPU = 0.001 seconds

set atom * mass 315.75
Setting atom values ...
  16 settings made for mass

group all type 1 4
16 atoms in group all

# oxDNA3 bond interactions - FENE backbone
bond_style hybrid oxdna3/fene
bond_coeff * oxdna3/fene oxdna3_real.cgdna
Reading oxdna3 potential (fene) file oxdna3_real.cgdna with DATE: 2026-03-02
special_bonds lj 0 1 1
Finding 1-2 1-3 1-4 neighbors ...
  special bond factors lj:    0        1        1       
  special bond factors coul:  0        0        0       
     2 = max # of 1-2 neighbors
     2 = max # of 1-3 neighbors
     4 = max # of 1-4 neighbors
     6 = max # of special neighbors
  special bonds CPU = 0.000 seconds

# oxDNA3 pair interactions
pair_style hybrid/overlay oxdna3/excv oxdna3/stk oxdna3/hbond oxdna3/xstk oxdna3/coaxstk oxdna3/dh
pair_coeff * * oxdna3/excv     oxdna3_real.cgdna
Reading oxdna3 potential (excv) file oxdna3_real.cgdna with DATE: 2026-03-02
pair_coeff * * oxdna3/stk      ${T} oxdna3_real.cgdna
pair_coeff * * oxdna3/stk      300 oxdna3_real.cgdna
Reading oxdna3 potential (stk) file oxdna3_real.cgdna with DATE: 2026-03-02
pair_coeff * * oxdna3/hbond    oxdna3_real.cgdna
Reading oxdna3 potential (hbond) file oxdna3_real.cgdna with DATE: 2026-03-02
pair_coeff 1 4 oxdna3/hbond    oxdna3_real.cgdna
Reading oxdna3 potential (hbond) file oxdna3_real.cgdna with DATE: 2026-03-02
pair_coeff 2 3 oxdna3/hbond    oxdna3_real.cgdna
Reading oxdna3 potential (hbond) file oxdna3_real.cgdna with DATE: 2026-03-02
pair_coeff * * oxdna3/xstk     oxdna3_real.cgdna
Reading oxdna3 potential (xstk) file oxdna3_real.cgdna with DATE: 2026-03-02
pair_coeff * * oxdna3/coaxstk  oxdna3_real.cgdna
Reading oxdna potential (coaxstk) file oxdna3_real.cgdna with DATE: 2026-03-02
pair_coeff * * oxdna3/dh       ${T} ${rhos} oxdna3_real.cgdna #no_3p_charge
pair_coeff * * oxdna3/dh       300 ${rhos} oxdna3_real.cgdna 
pair_coeff * * oxdna3/dh       300 0.2 oxdna3_real.cgdna 
Reading oxdna potential (dh) file oxdna3_real.cgdna with DATE: 2026-03-02

# NVE ensemble
fix 1 all nve/asphere
#fix 2 all langevin ${T} ${T} 4265.0 457145 angmom 10

timestep 0.01706

#comm_style tiled
fix 3 all balance 1000 1.03 shift xyz 10 1.03
comm_modify cutoff 32.4

compute quat all property/atom quatw quati quatj quatk

compute erot all erotate/asphere
compute ekin all ke
compute epot all pe

compute ebond all bond
compute eexcv all pair oxdna3/excv
compute estk  all pair oxdna3/stk
compute ehbond all pair oxdna3/hbond
compute exstk all pair oxdna3/xstk
compute ecoaxstk all pair oxdna3/coaxstk
compute edh all pair oxdna3/dh

variable erot equal c_erot
variable ekin equal c_ekin
variable edyn equal c_erot+c_ekin
variable epot equal c_epot
variable etot equal c_erot+c_ekin+c_epot

variable ebond equal c_ebond[1]
variable eexcv equal c_eexcv
variable estk equal c_estk
variable ehbond equal c_ehbond
variable exstk equal c_exstk
variable ecoaxstk equal c_ecoaxstk
variable edh equal c_edh

fix 5 all print ${efreq} "$(step)  ekin = ${ekin} |  erot = ${erot} | edyn = ${edyn} | ebond = ${ebond} | eexcv = ${eexcv} | estk = ${estk} | ehbond = ${ehbond} | exstk = ${exstk} | ecoaxstk = ${ecoaxstk} | edh = ${edh} | epot = ${epot} | etot = ${etot}" screen yes
fix 5 all print 1000 "$(step)  ekin = ${ekin} |  erot = ${erot} | edyn = ${edyn} | ebond = ${ebond} | eexcv = ${eexcv} | estk = ${estk} | ehbond = ${ehbond} | exstk = ${exstk} | ecoaxstk = ${ecoaxstk} | edh = ${edh} | epot = ${epot} | etot = ${etot}" screen yes

#dump out all custom ${ofreq} out.${number}.lammpstrj id mol type x y z ix iy iz vx vy vz c_quat[1] c_quat[2] c_quat[3] c_quat[4] angmomx angmomy angmomz
#dump_modify out sort id
#dump_modify out format line "%d %d %d  %22.15le %22.15le %22.15le  %d %d %d  %22.15le %22.15le %22.15le  %22.15le %22.15le %22.15le %22.15le  %22.15le %22.15le %22.15le"

run ${nsteps}
run 10000
Generated 0 of 6 mixed pair_coeff terms from geometric mixing rule
Neighbor list info ...
  update: every = 1 steps, delay = 0 steps, check = yes
  max neighbors/atom: 2000, page size: 100000
  master list distance cutoff = 48.032697
  ghost atom cutoff = 48.032697
  binsize = 24.016348, bins = 15 15 15
  5 neighbor lists, perpetual/occasional/extra = 5 0 0
  (1) pair oxdna3/excv, perpetual
      attributes: half, newton on
      pair build: half/bin/newton
      stencil: half/bin/3d
      bin: standard
  (2) pair oxdna3/hbond, perpetual, copy from (1)
      attributes: half, newton on
      pair build: copy
      stencil: none
      bin: none
  (3) pair oxdna3/xstk, perpetual, copy from (1)
      attributes: half, newton on
      pair build: copy
      stencil: none
      bin: none
  (4) pair oxdna3/coaxstk, perpetual, copy from (1)
      attributes: half, newton on
      pair build: copy
      stencil: none
      bin: none
  (5) pair oxdna3/dh, perpetual, copy from (1)
      attributes: half, newton on
      pair build: copy
      stencil: none
      bin: none
WARNING: Communication cutoff adjusted to 48.03269686950012 (../comm.cpp:703)
0  ekin = 16.124695569505 |  erot = 16.7027740772248 | edyn = 32.8274696467298 | ebond = 13.300264973202 | eexcv = 0 | estk = -88.4539556399987 | ehbond = -23.1874921105581 | exstk = -13.4481492138421 | ecoaxstk = -0.989675900531251 | edh = 2.23191399215345 | epot = -110.547093899575 | etot = -77.7196242528449
Per MPI rank memory allocation (min/avg/max) = 8.815 | 8.843 | 8.928 Mbytes
   Step          Temp          E_pair         E_mol          TotEng         Press          Volume    
         0   360.63341     -123.84736      13.300265     -94.422398     -0.098320051    39304000     
1000  ekin = 16.2998211932739 |  erot = 16.7884092705147 | edyn = 33.0882304637886 | ebond = 12.5081229723568 | eexcv = 0 | estk = -87.8053875878201 | ehbond = -23.0602122202903 | exstk = -13.6815614392707 | ecoaxstk = -0.998061436620807 | edh = 2.22924499229254 | epot = -110.807854719353 | etot = -77.7196242555641
2000  ekin = 16.6345420376858 |  erot = 17.06450844377 | edyn = 33.6990504814558 | ebond = 11.4633358151737 | eexcv = 0 | estk = -87.1933308687109 | ehbond = -22.8938012222714 | exstk = -14.0183311608272 | ecoaxstk = -1.0030121999793 | edh = 2.2264648912173 | epot = -111.418674745398 | etot = -77.719624263942
3000  ekin = 17.0616943778597 |  erot = 17.4986409591336 | edyn = 34.5603353369934 | ebond = 10.2607797423793 | eexcv = 0 | estk = -86.5985434305023 | ehbond = -22.736503339448 | exstk = -14.4243315632338 | ecoaxstk = -1.004967696765 | edh = 2.22360668362433 | epot = -112.279959603946 | etot = -77.7196242669522
4000  ekin = 17.5373947347842 |  erot = 18.0654006806868 | edyn = 35.6027954154709 | ebond = 8.98918552453061 | eexcv = 0 | estk = -85.9990008792413 | ehbond = -22.6330040659593 | exstk = -14.8959573237028 | ecoaxstk = -1.00433931498783 | edh = 2.22069637238832 | epot = -113.322419686972 | etot = -77.7196242715014
5000  ekin = 18.0161404182493 |  erot = 18.7269847821008 | edyn = 36.7431252003501 | ebond = 7.73091855237956 | eexcv = 0 | estk = -85.3759344113103 | ehbond = -22.6114093896714 | exstk = -15.4225623491517 | ecoaxstk = -1.00151659655783 | edh = 2.21775471725665 | epot = -114.462749477055 | etot = -77.7196242767048
6000  ekin = 18.4556654460344 |  erot = 19.4362962172719 | edyn = 37.8919616633064 | ebond = 6.56119406941701 | eexcv = 0 | estk = -84.7211566322978 | ehbond = -22.6851174164814 | exstk = -15.9844368141969 | ecoaxstk = -0.996867986250614 | edh = 2.21479883472421 | epot = -115.611585945086 | etot = -77.7196242817792
7000  ekin = 18.8238824677574 |  erot = 20.1417900846481 | edyn = 38.9656725524055 | ebond = 5.54612920843615 | eexcv = 0 | estk = -84.0433998518032 | ehbond = -22.8558129061724 | exstk = -16.5533221934742 | ecoaxstk = -0.99073609203623 | edh = 2.21184499653722 | epot = -116.685296838513 | etot = -77.7196242861071
8000  ekin = 18.2569852861704 |  erot = 21.2353393736754 | edyn = 39.4923246598458 | ebond = 4.74140917089571 | eexcv = 0.512230715469959 | estk = -83.4917596361595 | ehbond = -23.1190856012925 | exstk = -17.0802082872638 | ecoaxstk = -0.983429427412944 | edh = 2.20889413523768 | epot = -117.211948930525 | etot = -77.7196242706796
9000  ekin = 18.4111419899733 |  erot = 22.8595883078579 | edyn = 41.2707302978312 | ebond = 4.18980701446682 | eexcv = 0 | estk = -83.4385666400696 | ehbond = -23.4765959344905 | exstk = -17.4957234379461 | ecoaxstk = -0.975212870855291 | edh = 2.20593728669112 | epot = -118.990354582204 | etot = -77.7196242843723
10000  ekin = 18.8195629463738 |  erot = 23.5134872496869 | edyn = 42.3330501960607 | ebond = 3.91566236259186 | eexcv = 0 | estk = -83.5056253600688 | ehbond = -23.8923213211036 | exstk = -17.8071616079959 | ecoaxstk = -0.966298279536846 | edh = 2.20306971892899 | epot = -120.052674487184 | etot = -77.7196242911236
     10000   420.90489     -123.96834      3.9156624     -101.23311     -0.055296467    39304000     
Loop time of 0.0898078 on 4 procs for 10000 steps with 16 atoms

Performance: 164.127 ns/day, 0.146 hours/ns, 111348.965 timesteps/s, 1.782 Matom-step/s
99.8% CPU use with 4 MPI tasks x no OpenMP threads

MPI task timing breakdown:
Section |  min time  |  avg time  |  max time  |%varavg| %total
---------------------------------------------------------------
Pair    | 0.021986   | 0.035202   | 0.043423   |   4.4 | 39.20
Bond    | 0.000768   | 0.0016693  | 0.002204   |   1.4 |  1.86
Neigh   | 3e-05      | 3.05e-05   | 3.1e-05    |   0.0 |  0.03
Comm    | 0.023942   | 0.031537   | 0.046027   |   5.1 | 35.12
Output  | 7e-06      | 1.075e-05  | 1.2e-05    |   0.0 |  0.01
Modify  | 0.015696   | 0.016117   | 0.016607   |   0.3 | 17.95
Other   |            | 0.005241   |            |       |  5.84

Nlocal:              4 ave           4 max           4 min
Histogram: 4 0 0 0 0 0 0 0 0 0
Nghost:             12 ave          12 max          12 min
Histogram: 4 0 0 0 0 0 0 0 0 0
Neighs:             30 ave          47 max          16 min
Histogram: 1 0 1 0 0 1 0 0 0 1

Total # of neighbors = 120
Ave neighs/atom = 7.5
Ave special neighs/atom = 3.75
Neighbor list builds = 10
Dangerous builds = 0

#write_data last_config.${number}.* nocoeff
#write_restart last_config.${number}.*
Total wall time: 0:00:00
