LAMMPS data file in real units via oxdna lj2real.py, date 2026-03-03

148 atoms
4 atom types
148 bonds
1 bond types
148 ellipsoids

0 851 xlo xhi
0 851 ylo yhi
0 851 zlo zhi

Masses

1 315.75
2 315.75
3 315.75
4 315.75

Atoms # hybrid

1 1 208.31885120063512 209.07830059400624 213.0216021921939 1 1 1.001368291519964 0 0 0
2 4 208.94483576838627 206.4448010919165 216.6882923344523 1 1 1.001368291519964 0 0 0
3 3 211.56385346871699 204.30406864289688 220.11920728875927 1 1 1.001368291519964 0 0 0
4 2 214.31495335572012 204.35063728809808 223.61677544780568 1 1 1.001368291519964 0 0 0
5 1 217.30951997235965 206.16090626093134 225.4674912137906 1 1 1.001368291519964 0 0 0
6 2 219.30502197188136 209.00909667501074 227.49674701236893 1 1 1.001368291519964 0 0 0
7 3 219.83292281044646 212.19753274141107 230.53026977239148 1 1 1.001368291519964 0 0 0
8 2 218.93091557749156 214.31473141418766 234.6931272540053 1 1 1.001368291519964 0 0 0
9 4 220.32518751145957 214.85183803522298 239.6469648355356 1 1 1.001368291519964 0 0 0
10 2 219.79275827382872 213.3404053532149 243.70006386710043 1 1 1.001368291519964 0 0 0
11 3 220.70928151349608 210.21381004200654 247.14815553587854 1 1 1.001368291519964 0 0 0
12 2 223.67193733154724 208.04535577836813 249.67978988879284 1 1 1.001368291519964 0 0 0
13 2 227.31016552169513 206.16686658451448 251.61597827076264 1 1 1.001368291519964 0 0 0
14 1 231.80592101718645 204.9336536048614 251.53105173903185 1 1 1.001368291519964 0 0 0
15 2 236.2250804923752 205.47987477011685 250.98539881261863 1 1 1.001368291519964 0 0 0
16 3 240.0068773257833 207.77004331975903 249.53594241966383 1 1 1.001368291519964 0 0 0
17 1 242.98566065658693 210.5462682234126 249.63496548893542 1 1 1.001368291519964 0 0 0
18 4 245.42888445426894 214.27953740691964 250.53493716205472 1 1 1.001368291519964 0 0 0
19 2 248.78751685377597 216.90541434653767 253.53160552044426 1 1 1.001368291519964 0 0 0
20 4 251.39963359406735 218.16175894319667 257.62870661099066 1 1 1.001368291519964 0 0 0
21 2 255.5677235249031 217.61926364274564 260.07819570237643 1 1 1.001368291519964 0 0 0
22 3 259.63024332567574 215.18262726567113 260.69715353283686 1 1 1.001368291519964 0 0 0
23 1 263.1457867599882 212.6433935962059 258.9487935453862 1 1 1.001368291519964 0 0 0
24 1 266.3827446371434 210.87213953618837 256.26055100860737 1 1 1.001368291519964 0 0 0
25 2 267.97463902393866 210.20760693366043 251.4251108047254 1 1 1.001368291519964 0 0 0
26 3 270.07811694250654 210.90888555541903 247.7392596432837 1 1 1.001368291519964 0 0 0
27 1 271.09287437447114 213.11656552311496 244.5712139335691 1 1 1.001368291519964 0 0 0
28 4 272.8644901379567 216.09853596389848 242.34668607897146 1 1 1.001368291519964 0 0 0
29 3 277.14925724680575 218.15361661850437 241.02448320337692 1 1 1.001368291519964 0 0 0
30 2 281.6281862385014 219.54423347807102 240.83577460409623 1 1 1.001368291519964 0 0 0
31 4 285.53553117381364 218.07611082158127 239.4456849189117 1 1 1.001368291519964 0 0 0
32 2 288.8938226529956 215.3666526766779 237.57548982559325 1 1 1.001368291519964 0 0 0
33 1 291.12514756370877 212.98912935663924 233.8324040870632 1 1 1.001368291519964 0 0 0
34 4 291.3890795510732 210.45844522291486 230.3986316964525 1 1 1.001368291519964 0 0 0
35 2 290.3105820760069 208.74036664050792 226.7042745336879 1 1 1.001368291519964 0 0 0
36 4 289.18201447621146 208.91363527052587 222.89820557251684 1 1 1.001368291519964 0 0 0
37 2 288.971153902218 209.4805264669763 218.28666756836168 1 1 1.001368291519964 0 0 0
38 4 288.3534988328343 212.6173536934077 215.1661607036478 1 1 1.001368291519964 0 0 0
39 3 290.5684723991064 215.9608847032356 212.4583306861778 1 1 1.001368291519964 0 0 0
40 1 292.68130870382674 219.40449003374115 209.55910765683777 1 1 1.001368291519964 0 0 0
41 4 295.442338041982 219.36246849520484 206.48916887364152 1 1 1.001368291519964 0 0 0
42 2 296.36417522086 218.26244483114334 201.69379456148616 1 1 1.001368291519964 0 0 0
43 1 296.0323698080443 215.8225532800091 197.3280985778793 1 1 1.001368291519964 0 0 0
44 4 294.6530843322007 212.83142447716733 193.82965995050543 1 1 1.001368291519964 0 0 0
45 4 293.09410894134015 209.80599344824577 192.16605946359905 1 1 1.001368291519964 0 0 0
46 2 288.83490978178446 208.30134671602775 191.4877951864582 1 1 1.001368291519964 0 0 0
47 3 284.41597526830526 208.24835045301987 190.80522332231112 1 1 1.001368291519964 0 0 0
48 3 280.435589003895 210.25289346065463 190.2013738364397 1 1 1.001368291519964 0 0 0
49 1 276.458218418495 212.91127251248324 189.31964814095224 1 1 1.001368291519964 0 0 0
50 4 274.110573437327 215.08405186209467 186.3098121169227 1 1 1.001368291519964 0 0 0
51 2 272.2617942946457 216.3726311673256 182.27450679276578 1 1 1.001368291519964 0 0 0
52 2 269.83153994135154 216.05780869626503 177.8206876525648 1 1 1.001368291519964 0 0 0
53 3 267.4176400816519 213.93217536542784 174.3937134479138 1 1 1.001368291519964 0 0 0
54 2 263.3829580061682 212.17957495128988 172.47054426846077 1 1 1.001368291519964 0 0 0
55 2 259.23622219283226 208.62789572578382 172.79202606983338 1 1 1.001368291519964 0 0 0
56 1 254.9232399751811 207.98723446147798 174.1700423374239 1 1 1.001368291519964 0 0 0
57 1 251.01429470107985 207.4727826811597 176.6191860923174 1 1 1.001368291519964 0 0 0
58 4 247.503087519173 208.84937318781766 178.95270962305977 1 1 1.001368291519964 0 0 0
59 3 244.61228396290568 211.4487115261513 181.15392286257216 1 1 1.001368291519964 0 0 0
60 2 242.5582847227905 215.2537157253442 181.8226233142989 1 1 1.001368291519964 0 0 0
61 3 239.6649079158646 218.62799057023 180.73365427978584 1 1 1.001368291519964 0 0 0
62 2 235.1055006856569 219.4991097490642 179.19993338536528 1 1 1.001368291519964 0 0 0
63 2 230.06536838356837 218.20707751777684 178.12542542954407 1 1 1.001368291519964 0 0 0
64 1 226.19712505087438 216.01242228173862 178.66827050301285 1 1 1.001368291519964 0 0 0
65 4 223.80183977746594 212.48637324492603 181.4677574683601 1 1 1.001368291519964 0 0 0
66 2 223.35826983209282 209.42164303546804 184.31154729173656 1 1 1.001368291519964 0 0 0
67 4 223.115707961134 207.64116343000455 187.8227276328026 1 1 1.001368291519964 0 0 0
68 3 223.1828783897832 207.2041863918756 192.56176469772987 1 1 1.001368291519964 0 0 0
69 4 222.9562562898953 209.33623615586666 196.6941257026712 1 1 1.001368291519964 0 0 0
70 2 221.66690235711982 212.16853654386955 200.42093434949206 1 1 1.001368291519964 0 0 0
71 3 218.49749796817483 214.58613674743094 202.99887088045244 1 1 1.001368291519964 0 0 0
72 2 214.79843871210093 215.83998598169165 204.93838976343113 1 1 1.001368291519964 0 0 0
73 3 211.43258956470967 215.7076069451841 207.4075522992357 1 1 1.001368291519964 0 0 0
74 2 208.89304193837674 212.96791745700727 209.88970503949264 1 1 1.001368291519964 0 0 0
75 3 218.04384080398626 208.8517661220443 212.25851740130685 2 1 1.001368291519964 0 0 0
76 2 216.5892197279808 206.99598258539012 208.2068688237662 2 1 1.001368291519964 0 0 0
77 3 213.50296493867867 205.91838818342708 204.7824350973285 2 1 1.001368291519964 0 0 0
78 2 212.40344730057544 207.07794779056923 200.15488529641686 2 1 1.001368291519964 0 0 0
79 3 212.49899284410188 209.585331832834 196.59639195093382 2 1 1.001368291519964 0 0 0
80 1 213.8718296204717 212.43788517712443 194.07978733684686 2 1 1.001368291519964 0 0 0
81 2 217.77995345895644 215.8195741549278 192.62165385854775 2 1 1.001368291519964 0 0 0
82 1 221.28004012766087 217.1654248225849 190.47251220533374 2 1 1.001368291519964 0 0 0
83 3 225.8620451555664 217.7952321162026 189.70184485639834 2 1 1.001368291519964 0 0 0
84 1 229.11796505110405 216.62355134353226 188.55566261486354 2 1 1.001368291519964 0 0 0
85 4 231.93009597179287 213.28552897804775 187.18308633796394 2 1 1.001368291519964 0 0 0
86 3 233.8457023652249 210.92567784153482 183.76710295197495 2 1 1.001368291519964 0 0 0
87 3 235.10900957816648 209.21540627355986 179.91110079537762 2 1 1.001368291519964 0 0 0
88 2 237.54221305824186 209.88061882623805 175.87474946957948 2 1 1.001368291519964 0 0 0
89 3 240.73227695628347 211.91788237876028 172.5923540320211 2 1 1.001368291519964 0 0 0
90 2 244.20465175243865 215.00793672836622 171.518087640663 2 1 1.001368291519964 0 0 0
91 1 248.409983413366 216.8790144672266 172.84039701116973 2 1 1.001368291519964 0 0 0
92 4 252.3613185226405 217.80167017847748 174.7982475734568 2 1 1.001368291519964 0 0 0
93 4 255.03798994310935 216.90557703947596 178.41643036458865 2 1 1.001368291519964 0 0 0
94 3 258.0123600922758 214.0688621082654 181.3748252106654 2 1 1.001368291519964 0 0 0
95 3 261.4793208403472 211.18651636405338 182.10154093744066 2 1 1.001368291519964 0 0 0
96 2 264.61342330509945 208.4069633573196 182.13340389630036 2 1 1.001368291519964 0 0 0
97 3 268.1423255602099 206.43410772886958 180.6438100024248 2 1 1.001368291519964 0 0 0
98 3 272.6968293511453 206.12748243877718 180.10513377562995 2 1 1.001368291519964 0 0 0
99 1 277.10377489948667 208.1005328826892 179.3644456424518 2 1 1.001368291519964 0 0 0
100 4 281.00559845205873 211.06408209877605 180.10786289756504 2 1 1.001368291519964 0 0 0
101 2 284.60417782769156 214.3962696861514 181.99641804441617 2 1 1.001368291519964 0 0 0
102 2 286.60418124482914 216.5009851375199 185.7625155225522 2 1 1.001368291519964 0 0 0
103 3 287.3342876501778 217.90577178570192 189.82320249461165 2 1 1.001368291519964 0 0 0
104 1 287.1580072830518 218.24647026624564 194.54524399609593 2 1 1.001368291519964 0 0 0
105 1 285.97555699942546 216.4030183962319 198.00226153513316 2 1 1.001368291519964 0 0 0
106 4 286.9784674182509 213.80941634861662 200.984054131366 2 1 1.001368291519964 0 0 0
107 3 289.7070250162039 211.13118523574875 203.5459670820893 2 1 1.001368291519964 0 0 0
108 1 293.7348288391273 209.76614933968972 205.9159671580589 2 1 1.001368291519964 0 0 0
109 4 298.0470912443835 210.3476646132807 209.22602515661964 2 1 1.001368291519964 0 0 0
110 2 299.3727498239561 211.18882961507936 213.32359581947546 2 1 1.001368291519964 0 0 0
111 1 298.71438019179976 213.36502754336712 217.80809292107566 2 1 1.001368291519964 0 0 0
112 3 297.5778290486891 215.80813084505792 221.52375033983938 2 1 1.001368291519964 0 0 0
113 1 293.84181972000164 218.12459328726527 222.52194563573968 2 1 1.001368291519964 0 0 0
114 3 289.72480591547844 219.18763960036753 224.20582823532217 2 1 1.001368291519964 0 0 0
115 1 286.10060227835305 218.2366927723458 227.3329804786708 2 1 1.001368291519964 0 0 0
116 4 282.4274439426548 215.8348128129646 228.50667608915776 2 1 1.001368291519964 0 0 0
117 3 280.30736615533436 212.87615928361103 231.93191134907437 2 1 1.001368291519964 0 0 0
118 1 280.4957715892933 209.81978142604717 235.78978894134258 2 1 1.001368291519964 0 0 0
119 3 281.1124372652675 209.1630066603096 240.4037199441234 2 1 1.001368291519964 0 0 0
120 2 280.6004552189253 209.5904328052497 245.12986147761828 2 1 1.001368291519964 0 0 0
121 1 279.7088300157109 212.49871921998974 249.6398422165285 2 1 1.001368291519964 0 0 0
122 4 277.5145094311825 215.74407956221037 251.87908394986235 2 1 1.001368291519964 0 0 0
123 2 274.0292663881701 218.98094440600102 252.4720990110135 2 1 1.001368291519964 0 0 0
124 3 269.4802808363886 220.3779076053549 252.2846885821039 2 1 1.001368291519964 0 0 0
125 4 265.18702541695495 219.66875534535617 251.05221442068142 2 1 1.001368291519964 0 0 0
126 4 261.1973441761709 217.60856802642994 250.32297289687062 2 1 1.001368291519964 0 0 0
127 2 258.42965815651195 214.5285058619342 250.70264078825883 2 1 1.001368291519964 0 0 0
128 3 257.40131364348747 210.82918968859514 252.82205800210747 2 1 1.001368291519964 0 0 0
129 1 254.09665907944853 208.48587191866105 255.29832851571967 2 1 1.001368291519964 0 0 0
130 3 249.14711800822565 207.4790641809653 257.14454107837594 2 1 1.001368291519964 0 0 0
131 1 245.16232229032394 208.6542795519212 259.30366719951866 2 1 1.001368291519964 0 0 0
132 4 241.6088192401875 210.27052783917878 259.77711048596495 2 1 1.001368291519964 0 0 0
133 2 237.60579348133834 211.5677601936723 258.4967443170624 2 1 1.001368291519964 0 0 0
134 3 234.31563856213194 213.7023345421011 256.67498877187217 2 1 1.001368291519964 0 0 0
135 4 232.04178676973854 215.2247580978991 252.4887135012261 2 1 1.001368291519964 0 0 0
136 3 231.84989854624848 214.78206092351417 248.38409354076154 2 1 1.001368291519964 0 0 0
137 3 230.23584615132918 213.90825105541285 244.25659773796446 2 1 1.001368291519964 0 0 0
138 2 228.72514438427442 210.55975546279873 240.93389432997455 2 1 1.001368291519964 0 0 0
139 3 226.50901828126607 207.7720868061071 238.77244759668554 2 1 1.001368291519964 0 0 0
140 1 222.69524184571324 205.4563710695796 237.54896302353555 2 1 1.001368291519964 0 0 0
141 3 217.75254577305915 204.6697036863105 236.7300149978949 2 1 1.001368291519964 0 0 0
142 2 213.36264669166687 205.6664161637754 235.057769544392 2 1 1.001368291519964 0 0 0
143 3 210.36056196219099 208.22961038909222 233.43624218141468 2 1 1.001368291519964 0 0 0
144 4 209.52101940489996 211.7474752490511 229.6093465145509 2 1 1.001368291519964 0 0 0
145 3 210.0346178174762 213.46103317355895 225.4432866022292 2 1 1.001368291519964 0 0 0
146 2 212.1036301773736 214.37817428934144 222.09240510601887 2 1 1.001368291519964 0 0 0
147 1 214.8007196331168 213.86842062768343 219.12311053490302 2 1 1.001368291519964 0 0 0
148 4 217.11029191388695 212.18186978209044 215.47812529247457 2 1 1.001368291519964 0 0 0

Velocities

1 0.00041453327968939184 -0.00044105621781270337 -0.0002769763590500062 0.46717960617271603 -0.4531585211761119 0.03014730255645842
2 -0.0007885362957869734 0.0002582976084148741 -0.0001579315710267904 -0.9981808282193422 0.9031496276352288 -0.44630128109317935
3 -0.00032899364056174213 0.00021460177000813017 0.0006590480883876261 1.6856431903543019 0.15828131762225509 -0.2816783147162801
4 0.0006228120090746482 -0.0004820752616009954 0.001154698474611862 0.771111041800017 0.9667178137178092 0.5390127815547806
5 0.0008446530558928473 0.0006269364558689672 0.0009249174747953123 -0.9987218403185076 0.3864634130784635 -0.7699505717225692
6 0.0009765849466470732 -0.00039109597150298266 -0.0009124373526017461 0.7366249037685549 -1.0054361448233167 0.7471581681832059
7 -0.0003965898994055494 -0.00041744303358755253 -0.0007058149679897086 0.060520888891039896 -0.29784496089667345 0.7316948430594362
8 3.705744800675168e-05 -0.0002721435809946585 -0.000346234027063342 0.20653910481408827 -0.5600612443572073 -0.7544722975067206
9 -0.000701122647850656 0.0015574085414385196 0.0012176964931546136 -0.37884594016512757 0.42127606084298563 0.7062278452168137
10 -0.001598554462155804 0.00046255028581431405 0.0006332161709293187 0.9137234980643599 -0.009722904032491392 -1.562071806419598
11 -0.0006133361785575469 -0.00028380960319154125 -0.000596323641454978 -0.16060789914695545 -1.468224443623806 1.6628959689533493
12 0.001411797096451987 0.0013418497797912789 -0.00037902108373741934 0.2592322290767634 0.8299835075160182 0.9413836994523226
13 0.0007572467562357997 0.0008028073871271042 -7.975140386447687e-05 -0.1709926719535632 0.0035171772693728173 0.5961518244069663
14 -0.0004627207040237269 -0.0009016024774993046 -0.00025513364156835394 -0.8790471032803271 0.617696850343234 0.05832858234105541
15 0.0017741487531693413 -0.00021645337133425582 0.0010868418955361189 -0.13139166366556462 0.862464643979537 -0.01103678171731563
16 9.081842107472795e-05 0.0006802836710000199 -0.00046641551820845274 0.7977435024050834 0.858627230362847 0.5367768238502187
17 0.00033217639221613603 4.979571616753101e-05 -0.0010224225383307852 -0.6443191312758493 -0.11357723132506446 0.8501061035078341
18 -0.0012741489162244035 0.001180577636922344 0.0003472520194065929 1.148910396870225 -0.5610157953363029 0.5244284296071946
19 -0.0020468114204598184 -0.0008083319934178348 0.00043170387200837466 -1.0896802796588327 -0.3246337190437993 -0.726570867798014
20 -8.91824231592966e-05 0.00038591010422800106 -0.00046539289906127646 0.9097136939556545 0.5738233201563302 -1.2906192144833168
21 0.0014158843266616023 0.0004066801877670781 -0.00010992076969800544 -1.1571149431178431 0.023561616245794028 -0.2263296765563493
22 -0.0008505863112859779 2.808216086075807e-05 0.0019868759610428624 -0.4436446263523477 0.7384975561385084 1.5588707596675597
23 0.0012135904096687799 0.0006313817213657861 0.0002944541712036274 0.6298763837333377 2.052311090715595 -0.6191508390412487
24 -0.00027451990872864537 -0.0011194854143065172 -0.000707227906450673 -0.09130336531327075 0.6760907582450815 1.0349525844047192
25 0.0009654180270845088 -0.0011158917170339777 0.000754780201701826 -1.2532446042385932 0.3253445700330378 -0.5895427331047478
26 0.0013523063922044512 -0.0003603453492687525 4.0594507807966736e-05 0.3822684439575091 0.08729003510328424 0.4145223358894533
27 -0.0016657581132088772 -0.0007707998928436282 0.0005019955206734327 1.1334499289788202 1.9175967659741722 0.10183936620178592
28 0.0017381828220408354 8.220079837829503e-06 -0.0008051929000733667 -0.7476587995020394 2.230345101312426 -1.096056760849074
29 0.0011842926318942314 0.0007796845857532479 0.0011575725231063123 -0.8726679695757005 1.015901245491714 -0.41825512631922634
30 0.0002251231061302582 0.0007999268316295807 -0.0007513502662887285 0.811250072584235 -0.05903787860937819 0.6231713232372241
31 -0.0008849537462212708 -0.0003555806870536111 -0.0009332427200608703 0.5545433332470195 -0.29871277726148404 0.08902254763095134
32 -0.001126852598469151 0.0003963071651576281 -0.0012462899835770642 1.445752962225924 -0.06889873410912888 -0.2232456890184077
33 0.00023852309489318528 0.00044999811927401396 9.302430771935802e-06 0.717040447569139 0.4983873940694888 0.4217793741506724
34 8.327443896478035e-05 0.00021629059465513224 0.0002885009788013743 -0.7259222758614661 0.5751639409042919 -0.3694165758967765
35 -0.0004187261685810973 -0.00020896608139912 -0.00038367453949485545 -0.04356683769462041 0.48297389461105733 -0.7868920689663953
36 -0.002131663921421022 0.0005297631933314431 -1.8368800162646378e-05 -1.6518303778349803 1.1542151732031891 -0.8600055778297647
37 0.0003482887458515716 0.0005278776107756208 -0.0007892398976664219 0.06901807550586361 -1.0710716830207274 -0.900363926735387
38 -0.0004308072252740664 0.0007085979825386234 5.4021061735324484e-05 -0.2967007858749405 0.9535823522629288 1.3068862500269083
39 -0.00032743817236766424 5.4282728144146676e-06 0.00035188111074784076 0.44829640940949417 0.258535982482351 -1.4948577327964987
40 0.0004260778046427959 0.00048675991674558517 -0.000327633155910067 1.3543529813093473 -1.7371636135017792 -0.538745515203125
41 -0.00031129692772264135 -0.0005575610358202497 0.00045829688273573636 -0.24625029313301294 0.7549123387001156 1.521415842781215
42 0.0006139978151079014 -0.0014761389403752545 0.000693473407036027 -0.42791128851534493 0.31475181427824883 0.49477031560497176
43 -0.00032910370905992115 0.002088814702747508 4.008691111401304e-06 0.831014040663953 -2.0323722472957524 1.0345967078179008
44 -0.0003711111784879676 -0.0006452069741499879 -0.0009920986403829614 1.677908370251442 1.035543542659901 -1.320745883172495
45 -0.0014019575793801462 -0.0012222275897903537 -0.0003837403730548792 0.21441642687506599 1.0043697128607094 -0.21165200261454042
46 -0.0004433198771832812 0.00024290729555271606 -0.0006970449222565498 0.01948892588170634 0.5074137109558668 0.32784126891060544
47 0.0002540396131011671 0.00013067255379414075 -0.0005622868055735179 1.1289095839606245 -0.43367181690935686 -1.441818232123101
48 0.0004900032751310652 0.0007529880832492942 0.00017696578915290823 -0.04005845538748518 -0.37404352783189354 -1.565534984466317
49 0.00015645072896490166 0.0013902996369207245 0.002137196245370733 -0.8897164863203072 -0.25996086448565175 0.14512327465976857
50 0.0010374682265001961 -0.0003584297818780846 -0.00037153392871662233 0.2963842235695521 -0.3977481941862401 -0.6105618294099056
51 0.0009823296429918953 0.0007302101617164229 0.00014458542488163131 -0.7729516344340467 0.23499368457123138 -0.4948698737559455
52 -0.0005458972809935155 -0.0006141280972701666 0.00012772097230126034 -1.2819633710923755 -0.9022116917162212 0.5188093075808438
53 -0.001346398506992068 -0.000604758743142534 0.0009733354841251884 -0.5604185638095844 0.6294882148893176 0.30894037332305385
54 0.0016279423774298327 -0.00034237626332123323 -0.0003312921580289476 0.8479024074766673 1.2771826104533206 0.5216401149348073
55 -0.0004835592688562701 -0.00020474381799170287 0.0005359120885578648 0.5748141903003363 0.8323384163518153 0.35209026823367917
56 0.00040074089409676057 0.00043351439650595727 -0.00029982299653252446 0.2161452824814264 -0.20213402992466234 1.2281892937221266
57 0.0001844115240541337 0.0015155835507608152 -0.0008394496634181646 -1.3778420158722149 -0.08543683064831462 -1.3168433957248475
58 -0.0002683894819985012 0.0004917820986013895 -0.0003467712234486378 -1.9273827965433241 0.9121957446187513 0.6675686313545839
59 -0.0006260407308622119 0.0012979780177922557 -0.0008846912973492825 0.3311146215409129 0.7983286840240889 1.1270519585712169
60 -0.00018047964210924418 1.5690637980591544e-05 2.4476601129029075e-06 0.6098588208145445 0.06719631566598007 -0.6226048321599938
61 0.000667201650544623 0.0009371328731678845 -0.000653840565234539 -0.08245227738539922 -0.13267621788859948 0.07402043218409539
62 0.0002497864433733132 -0.00022534182119209354 0.0010320539261645767 -0.9577625842288071 -0.4655663671676036 0.5392813852162468
63 -0.00039883103822633935 0.0011149868887407512 -0.0004667738491754396 0.5614379511443635 -0.03676589921922348 0.9239403784658283
64 -0.0002243476212464899 -0.0012096269770444134 0.00039918521349696857 -1.3388894036604477 0.49984580063949324 1.0079561901433345
65 -0.00047616272107902193 -0.0011183119327319864 -0.0018919118783850455 -0.0047691349570871296 0.18816168554327134 0.8465908269974435
66 -0.0005697609951972545 0.0013668471063427049 0.0011888394186140943 -1.2862687955432128 -1.725294409866247 0.2460401129372448
67 -0.0008305919805925499 -4.677830406214096e-05 0.00013542611210451115 0.4501401806004202 -1.556086177023281 0.4943579974085536
68 -0.0004167623856102942 0.0007421435471706318 0.0016405151351602991 0.8518994893650046 0.7773761362938505 0.10107299709352725
69 0.0007152455254595686 -0.0007847874759125801 0.00011174331870081596 1.4124266415074291 0.6732953318747074 -1.314864589357978
70 0.00029003931306371413 0.0009604396221639454 -1.2373197805581532e-05 -0.32958435944168 -2.1945845533403823 -0.0139963257095151
71 -0.0007848146538978266 -0.0007747939400334639 -0.0015603110096175374 -0.3116042259643837 0.16419967056136783 -1.6475020334832056
72 -0.0012112735437339978 -0.0010262606342700922 0.0020095533675803605 0.9464863900447273 -0.38422364809250203 -0.1138859577986667
73 -0.00057722373978597 0.0013963857384909648 -0.0009589034711085848 -2.201064707954823 -0.5064506720106432 1.59125423454533
74 0.000459100858622427 -0.0003572230026483092 0.00013959994496343532 0.36653837148997254 0.7750695124847217 2.282546327607435
75 -0.0007637882041785514 0.0009153605267108013 0.0003622982551699529 0.7533575635282476 -0.037096424239849345 -1.5048337958596887
76 -0.001778757997625437 -0.000142252979126136 3.269536415748875e-05 1.0766682740130118 0.22754125760316068 1.4094160912512324
77 -0.0009947361365597455 -2.719310081517455e-05 0.00035945636782574276 -0.6249492862804613 0.02637658214346113 -0.5196016211735732
78 0.001452903133292827 -0.00026359729719660057 0.0002947116955286928 -1.0671524190731758 -0.14200691432853021 -0.8090759913521779
79 -0.0001738788837992324 -0.0007959154304980595 0.0007052946804528029 0.9916529927279791 0.47517510979263805 0.5186980756199748
80 0.000205659185998402 -0.00023801129124505202 9.510810440604927e-05 -0.27555297218024566 -0.08313114073596217 0.17367972831516829
81 0.0007962650157670618 0.00019641612511685672 -0.00026351548332275934 0.10993040713403675 0.29701234322718095 -0.39382926416623293
82 -0.0006440917372011288 0.0007370223629976796 -0.00020763385925375073 0.4648861353888768 -0.9104405390202083 -0.7977385869540686
83 -0.0016378450262641627 -0.0008036452699417512 -0.000647698607808241 -1.0629398830577172 0.3269428657758631 -0.38144030304834514
84 -9.352442395881414e-05 -0.0012840927237002086 -0.0006915700905481692 0.005372066083867479 -0.5390907471923992 -0.2777566351906907
85 7.177953247943152e-05 -8.190391850655409e-05 0.00024774747132685844 -0.4292226443489461 0.8471691204719005 -1.3791871454410665
86 -0.0019366313954294638 0.0008283616733483862 0.0012388672902738968 0.4037609720404602 -0.2593613695637518 -0.17852763994388857
87 0.0013354139129123084 0.0016810370814369358 -0.0001190531747475477 0.6351387804786802 0.8905074509635486 0.6769043325703819
88 -0.0006561631639865669 0.0010692592359028757 6.192896575375716e-05 0.7743307120029218 -0.5636620987304579 0.8815622285698992
89 -0.0007306555110362081 -0.0019474880723546891 0.0003428883165455553 -0.6705185295098198 0.6731249564733857 0.1100356745806408
90 0.000518277836447503 -6.263390927512898e-05 -0.0012051902449410775 -1.616756517456601 -0.1393423224958554 0.3902238930236011
91 0.0006965172687411267 -7.785800792405963e-05 0.00011634948235346544 -0.3235923694084734 0.25055327829147 -0.12891171563698456
92 0.001173691110468749 0.0012577370712978987 -0.001116033651099773 2.049848442426106 -0.21194975503101818 1.5462209387373869
93 0.00030130435954534897 0.0015553950954877496 -0.00019155939334344847 -1.3764330107259448 -0.7169832988639874 -0.3796281138587165
94 -0.0010717073456886534 -0.00045321330296204906 0.0006771393172090078 0.04300745409278956 0.4315810404582043 -1.6513108077976753
95 -3.463022679496265e-05 -0.0007343349856543466 0.0007752154309263678 -0.0183143190679725 0.6452213560456804 0.5634086147140751
96 0.00016913175534326465 0.0006883754856177298 -9.66296447942902e-05 0.7505375172703374 0.36445455727719844 -1.1491635498513455
97 -0.0010730119675181472 -0.0002806045153554137 0.0009399785333791702 -0.6339119433001639 1.0638546286775914 0.49158075823483044
98 9.143510963850985e-05 -0.00011830978291963836 -0.00017718498982331095 1.4896314880064367 0.7257099268701487 -0.6955311793006941
99 -0.000533125882700974 -0.0002214251391462861 -0.0006882802432006072 1.321421964436253 -0.5269648121655157 -0.5922280914771291
100 -0.00027835479595511787 0.0004975598419634655 -0.0010105753505683201 -0.9078312146404396 -0.5356553000214805 0.26649612631463243
101 0.0007072233281778779 -0.0009056236475805677 -0.0005669356962722959 -0.6903812604822057 0.08929798576093577 0.8953577260425654
102 -0.0005253670480694374 0.001620004894445525 -0.0006119854017638386 0.5903405022622599 0.9957284985657006 2.289945190505527
103 0.0005515416009505372 -0.0006755043276571187 0.0008722769847065001 -1.8485129953618022 -0.5444516998237584 -0.04943033209967115
104 -0.0005964973797221228 0.0018669705878481522 -6.126139475718946e-05 -1.7400369381947827 -0.8933909802661073 1.3270671630205397
105 0.0001895002780377653 -0.0004259104107337916 -0.00023259680638049686 -0.20831032064077515 -0.3195101492752835 0.1736337083429548
106 -0.0011660881365160621 0.00021347057775938054 -0.0016041141967068377 -0.8547168551134541 -0.20227724168033004 -0.25855671052285867
107 -0.00014075523839862482 4.369877684642243e-05 0.0005914893463547426 0.26393061596653034 0.5118479801010394 -0.1963088335549023
108 0.0008528692124684243 -0.0007049049489243276 -0.0003339583477886193 -0.8678143838971142 0.4772454499429306 -1.1972224772032725
109 -0.00011001030395419433 -0.0012811980688048744 -0.00019338746019275182 0.3551651136663502 0.48127705248669966 -0.5845943218567486
110 0.0013193332125600926 -0.0003626627573271646 0.00041114816947270314 0.7863890989514449 0.5066252521413693 0.22665029998820763
111 -0.00013340568447721342 0.0001570036053262969 0.00029031026342379423 0.3487361965974975 1.5661846677803812 0.37762813890430835
112 0.0021637557874717456 0.00010330310475709297 0.0003629777252607407 -0.14951024330211074 -0.07190139084924257 -1.289129205848815
113 -0.0006863676920347509 -0.0005736296119957071 0.0005968095150777619 -0.40297314361058734 -0.8681207383055646 0.6091848869620411
114 -0.00044267964968908234 9.175657939280731e-05 0.001012233199081793 -0.8523731771108715 -0.21029626318289332 0.7202061694324591
115 -0.0024328629905792823 0.0001283178568687228 -0.00012257358147575349 -0.06461490563571004 -0.6845293860283758 0.36911428802687174
116 -0.0007524352164096473 -0.0011348541982267794 -0.0014246654549209506 -0.7852175586012662 -0.6844959855010475 1.3214832465767576
117 -0.0016317836911229585 -0.0005622325497934858 0.000526417896318565 -0.6457007804323225 1.0413199239321405 -1.5550281790513558
118 0.0006793075397984828 0.0010834059116519269 -0.000316743500140129 0.14270929467475474 0.1863518536353376 -0.6863962970798153
119 -0.0005599840531181789 -0.0005447461206963968 0.00018425432135399437 0.18595550517675274 0.44222329233101526 -0.17695239773821836
120 0.0013047117473360661 0.0001852419199517187 -0.0012778073780506656 -0.6115584000978403 0.08950596835538817 -0.33098148977177533
121 -0.0009183768967517944 -4.112343935071624e-05 0.0008433693847589981 0.33369022453476027 -0.025879885777067266 -0.45630561046787266
122 7.772574283332527e-05 -8.106758426507269e-05 -0.002126311116781662 -1.148065263063346 0.15533109481186955 -0.7074689387292603
123 0.0011891593713603764 -0.0005966411903617987 2.668269663623399e-05 -1.1276578077159989 -0.021528338199033634 -0.12249758972686159
124 0.0016541481586765583 0.001308003584872658 -0.0005475844718763227 0.6571070654609629 -0.9928381510987473 0.4358307189318602
125 -0.0010291516337588178 -0.0012386021568798992 0.00025139711910249473 -0.9551097661477801 -0.9127781190575182 0.8723743122125771
126 -0.00017743572121277533 0.0008445618346848348 -0.0003896740285727192 -1.8393961614469003 0.7766647769365577 0.7924969290698256
127 -0.0010003482646742065 0.0016473089387186674 -0.0010340834177797605 0.0822200118071467 0.11760452188396156 1.883009964898931