LAMMPS data file in real units via oxdna lj2real.py, date 2026-03-03

26 atoms
8 atom types
24 bonds
1 bond types
26 ellipsoids

-170 170 xlo xhi
-170 170 ylo yhi
-170 170 zlo zhi

Masses

1 315.75
2 315.75
3 315.75
4 315.75
5 315.75
6 315.75
7 315.75
8 315.75

Atoms # hybrid

1 1 -5.088903454828145 -4.022006630398617 0.979450832492054 1 1 1.001368291519964 0 0 0
2 2 -3.073273348143933 -6.886121795405585 4.2637967191149935 1 1 1.001368291519964 0 0 0
3 3 -1.6015249052848957 -7.954971258517993 7.983259491779774 1 1 1.001368291519964 0 0 0
4 4 1.6004494372303046 -7.502206000462345 11.142183230976523 1 1 1.001368291519964 0 0 0
5 5 3.9762269824284777 -5.378694720128274 14.092706034736517 1 1 1.001368291519964 0 0 0
6 6 5.244098183685422 -2.0736999117014334 17.034635513902522 1 1 1.001368291519964 0 0 0
7 7 4.66434547759629 0.9057195140116471 20.406471315843888 1 1 1.001368291519964 0 0 0
8 8 3.3770131096003007 2.884613516099349 24.32212902640886 1 1 1.001368291519964 0 0 0
9 1 0.7795485088930724 2.8596780468864993 27.93316866219941 1 1 1.001368291519964 0 0 0
10 2 -2.220644638122167 1.9976911283301424 30.852747566202943 1 1 1.001368291519964 0 0 0
11 7 -3.752108563283866 -0.36118973532266224 34.56060757623137 1 1 1.001368291519964 0 0 0
12 8 -4.0981351277114095 -3.3336637232155737 38.03472139175804 1 1 1.001368291519964 0 0 0
13 1 -2.580860807366316 -5.296690457458744 41.65233354663661 1 1 1.001368291519964 0 0 0
14 4 3.11235736590125 3.9787921540654274 41.61858344700847 2 1 1.001368291519964 0 0 0
15 5 4.972174868431865 1.22026293032667 39.080053199424356 2 1 1.001368291519964 0 0 0
16 6 6.193349083696695 -1.843990009872412 35.70127548826449 2 1 1.001368291519964 0 0 0
17 3 4.85045978654294 -5.086115266816092 32.287814957190825 2 1 1.001368291519964 0 0 0
18 4 2.7413887948469777 -6.6667612407190076 28.945688671744993 2 1 1.001368291519964 0 0 0
19 5 0.23801913694460985 -6.962572452460229 24.638294488589953 2 1 1.001368291519964 0 0 0
20 6 -2.929295143505978 -5.793156995357843 22.155368377440084 2 1 1.001368291519964 0 0 0
21 7 -4.874287161624311 -2.6868984302083723 19.162406167006097 2 1 1.001368291519964 0 0 0
22 8 -4.466038023713098 -0.16009445500929992 14.199167217812603 2 1 1.001368291519964 0 0 0
23 1 -3.805032901797115 1.3047989425274054 9.939919176722297 2 1 1.001368291519964 0 0 0
24 2 -0.3645313828582167 2.0504253339486334 6.749830838323167 2 1 1.001368291519964 0 0 0
25 3 2.8696234661228 1.1843850873648512 3.5779840008575166 2 1 1.001368291519964 0 0 0
26 4 4.584052070339748 -2.4162961106383802 0.4178747538604132 2 1 1.001368291519964 0 0 0

Velocities

1 -0.000709477179750243 -0.0011686386937863561 0.0009347979328960546 -0.19711232717470623 0.3471651371253632 1.1876910551680857
2 0.00016932709166073143 0.0014548108498914321 -0.0009134573449944076 0.4008509947727076 -0.18887787153428492 0.0470916729085271
3 0.00026728424152088555 -0.0018479174866286063 -7.338888321754548e-05 0.46267806631073216 1.0098854401111186 0.6393386516790674
4 0.0005532209717617426 6.278446543645827e-05 0.0011763848311208116 0.48547155712426787 -1.0167277301392867 0.4763120637590808
5 0.0010962084045925307 -0.0020741477111021894 0.0009202803363551266 1.062355214379718 1.0659363414558218 -1.5037623158162272
6 -0.00119962788943959 -0.0008202482100214547 -1.8791021864691654e-05 0.26379308123336276 0.9503957901309356 -1.6260816977226078
7 0.0006179230401732956 0.0005190621139995036 0.0003999936615408175 -0.6408150268398098 0.3634822273863691 -1.3757988494574274
8 0.00016063547558980775 -0.0006452375935821394 0.000867158263760446 -0.7477753738802106 0.4736109169421568 -0.5810827788090877
9 8.233474341935323e-05 6.01683815798735e-05 6.127473062741981e-05 -0.46071826894336076 0.5637438448821964 0.26087329648286073
10 -0.0005002843285402016 -0.00046319306348232116 0.00035594877926744905 -0.3632876755206325 -0.4336954489480336 0.5273119423225193
11 0.000775930347926666 -8.928681735328104e-05 -0.0008388247436755417 -0.4808094781117382 0.46086691734769025 -1.233917384498875
12 -0.0012639968107028563 0.00028226878111834336 -0.001413084883045527 0.3775770698033634 -0.18074239362764763 2.0452617417564514
13 -3.258880271692556e-05 0.0002636244084580073 0.0004612843217999103 -0.7261433350736127 -0.9102585090011367 -0.9502199541626476
14 -0.0004507102222001599 0.0009692917338063894 -0.001362452654732435 0.7053165905365116 0.23845485623182125 0.771667494714772
15 0.001163449957723418 0.00044582812815649697 8.7688143997812e-05 0.6336918677687544 0.2368054629474523 0.16348498645401396
16 -6.37582239046328e-05 -0.0002931812863351253 0.001121695909628406 -0.22078553947859994 0.48281414900877523 -1.5155642781839866
17 -0.0010188821372496216 -0.0021564612853092672 -0.00026035602518536795 -0.7045403259518448 -0.35130420725817035 -1.3344590548007764
18 0.0013189275723303417 2.048284803337407e-05 -0.0005698148638839763 -1.60601696353384 0.09031912408581651 0.9877748901748583
19 -0.001404083704282046 0.0012722871834515538 1.898121468409856e-05 0.9208020896173988 -1.6695306251429662 0.9680302936187877
20 -0.0017045564067813088 0.0002534461898376919 -0.0001692304111261274 -0.5820792063008061 -0.6584654564325364 -0.13895240903802053
21 -0.0012835821191835887 0.00023439190271288196 0.0004176536325519618 -0.3684785350264752 -0.13070344436128578 -0.7972510155591651
22 0.00042598257971126856 0.0005324988684990133 -0.00037094379423563325 -1.9874777139289717 -0.8187613935789363 0.8567001036069145
23 -0.0004663336065175293 -0.0009524752361462818 0.0009628207102677543 0.07570393728477481 -1.5530336685045285 1.0623548347162584
24 -0.0008022553757801441 0.0006132445215253361 0.00025667066898655454 -0.4133467091825752 -1.1231736836289075 0.34895550028526706
25 -0.0007359796725395968 0.00048440486004396423 -0.0010364011902123129 0.23875246042605938 -0.5925730989986466 0.14842850579725142
26 -0.0003017459015068128 0.0017755793405263062 -0.0009825607712710823 0.06282009012073321 0.11750814225075934 -0.8762462130658717

Bonds

1 1 1 2
2 1 2 3
3 1 3 4
4 1 4 5
5 1 5 6
6 1 6 7
7 1 7 8
8 1 8 9
9 1 9 10
10 1 10 11
11 1 11 12
12 1 12 13
13 1 14 15
14 1 15 16
15 1 16 17
16 1 17 18
17 1 18 19
18 1 19 20
19 1 20 21
20 1 21 22
21 1 22 23
22 1 23 24
23 1 24 25
24 1 25 26

Ellipsoids

1 9.999999997766462 9.999999997766462 9.999999997766462 0.9970278940278272 0.0014876174054512252 0.0750547523448584 0.017319055267040844
2 9.999999997766462 9.999999997766462 9.999999997766462 0.9059171712388804 0.007913225291438054 0.04634256838354512 0.42083705406683053
3 9.999999997766462 9.999999997766462 9.999999997766462 0.7657426991864452 0.028071560533125216 0.13224385975981257 0.6287779160305484
4 9.999999997766462 9.999999997766462 9.999999997766462 0.5238981696613685 0.0516703526741727 0.1609645534282743 0.8348360887142046
5 9.999999997766462 9.999999997766462 9.999999997766462 0.30973290897949424 0.0750672191209306 0.23962885621884192 0.9170651279902646
6 9.999999997766462 9.999999997766462 9.999999997766462 -0.050269263744563454 0.08142241031464711 0.09584085715741358 0.9907865170259763
7 9.999999997766462 9.999999997766462 9.999999997766462 -0.3805122714271814 0.08965734720629535 0.057827749665601925 0.9186010683391725
8 9.999999997766462 9.999999997766462 9.999999997766462 -0.6066322463100545 0.015286960797006149 0.035984536832974555 0.7940206166563465
9 9.999999997766462 9.999999997766462 9.999999997766462 0.771660293819677 0.02607541526374929 -0.08047223278265907 -0.6303845520092687
10 9.999999997766462 9.999999997766462 9.999999997766462 0.9119628434851113 0.03686258000931541 -0.11017000132786052 -0.3934812487336936
11 9.999999997766462 9.999999997766462 9.999999997766462 0.9917294290821066 0.05835078551401739 -0.08073737536574405 -0.08092837290732445
12 9.999999997766462 9.999999997766462 9.999999997766462 0.9763527785523285 0.06753089597617556 0.004847281702108697 0.205307899901351
13 9.999999997766462 9.999999997766462 9.999999997766462 0.8553397145502984 0.1399133966151149 0.07233200118835512 0.49354462388392356
14 9.999999997766462 9.999999997766462 9.999999997766462 0.014416326682630282 -0.533642571147991 0.8442695396252617 0.04718813669228716
15 9.999999997766462 9.999999997766462 9.999999997766462 0.14095892784917538 -0.2201285495070387 0.9406003462562982 -0.21666792788520955
16 9.999999997766462 9.999999997766462 9.999999997766462 0.07323967796304806 0.05035907488974361 0.963136526452943 -0.2539053850556888
17 9.999999997766462 9.999999997766462 9.999999997766462 0.030254986187638885 0.39195467212588947 0.9164794947567249 -0.07430684019611289
18 9.999999997766462 9.999999997766462 9.999999997766462 -0.03080283760241768 0.6526511470205414 0.7481495879677094 -0.11562810865943304
19 9.999999997766462 9.999999997766462 9.999999997766462 -0.09450197979153381 0.7469150592813072 0.6556128255138505 -0.0579576833217777
20 9.999999997766462 9.999999997766462 9.999999997766462 -0.12903334341475137 0.9222523214328698 0.3501336268694509 -0.10103214950765672
21 9.999999997766462 9.999999997766462 9.999999997766462 -0.0069954457806870336 0.9888131084284681 -0.09413955816471489 -0.11548785185859346
22 9.999999997766462 9.999999997766462 9.999999997766462 0.029336230851923526 0.9805894852440379 -0.19236800606724952 -0.02404573205262194
23 9.999999997766462 9.999999997766462 9.999999997766462 0.03080980270092377 0.872234086776475 -0.4869211139732921 0.03415088124407873
24 9.999999997766462 9.999999997766462 9.999999997766462 0.007237815450514786 0.690265186998662 -0.7210993183911308 0.05913847022922672
25 9.999999997766462 9.999999997766462 9.999999997766462 0.06694683426684143 -0.46894411325316443 0.8712038661029582 -0.12889283810247346
26 9.999999997766462 9.999999997766462 9.999999997766462 0.07581973147109407 -0.10215114654759445 0.9759556607577902 -0.17699451916228467
