LAMMPS (17 Apr 2024 - Development - patch_17Apr2024-174-g749e259294-modified)
variable number	equal 8
variable ofreq	equal 1000
variable efreq	equal 1000

variable ntype equal 8

variable T equal 300.0
variable rhos   equal 0.2

units real

dimension 3

newton on

boundary  p p p

atom_style hybrid bond ellipsoid oxdna
WARNING: Atom style hybrid defines both, per-type and per-atom masses; both must be set, but only per-atom masses will be used (../atom_vec_hybrid.cpp:132)
atom_modify sort 0 8.518

# Pair interactions require lists of neighbours to be calculated
neighbor 17.036 bin
neigh_modify every 10 delay 0 check yes

read_data data.duplex4.8type
Reading data file ...
  orthogonal box = (-170 -170 -170) to (170 170 170)
  1 by 1 by 1 MPI processor grid
  reading atoms ...
  26 atoms
  reading velocities ...
  26 velocities
  scanning bonds ...
  1 = max bonds/atom
  26 ellipsoids
  orthogonal box = (-170 -170 -170) to (170 170 170)
  1 by 1 by 1 MPI processor grid
  reading bonds ...
  24 bonds
Finding 1-2 1-3 1-4 neighbors ...
  special bond factors lj:    0        0        0       
  special bond factors coul:  0        0        0       
     2 = max # of 1-2 neighbors
     2 = max # of 1-3 neighbors
     4 = max # of 1-4 neighbors
     6 = max # of special neighbors
  special bonds CPU = 0.000 seconds
  read_data CPU = 0.009 seconds

mass * 315.8376           # sets per-type mass if not in data file
set atom * mass 315.8376  # sets per-atom mass
Setting atom values ...
  26 settings made for mass

group all type 1 4
26 atoms in group all

# oxDNA2 bond interactions - FENE backbone
bond_style oxdna2/fene
bond_coeff * 11.92337812042065 2.1295 6.4430152
special_bonds lj 0 1 1
Finding 1-2 1-3 1-4 neighbors ...
  special bond factors lj:    0        1        1       
  special bond factors coul:  0        0        0       
     2 = max # of 1-2 neighbors
     2 = max # of 1-3 neighbors
     4 = max # of 1-4 neighbors
     6 = max # of special neighbors
  special bonds CPU = 0.000 seconds

# oxDNA pair interactions
pair_style hybrid/overlay oxdna2/excv oxdna2/stk oxdna2/hbond oxdna2/xstk oxdna2/coaxstk oxdna2/dh
pair_coeff * * oxdna2/excv 11.92337812042065 5.9626 5.74965 11.92337812042065 4.38677 4.259 11.92337812042065 2.81094 2.72576
pair_coeff * * oxdna2/stk seqdep ${T} 8.06199211612242 0.005309213 0.70439070204273 3.4072 7.6662 2.72576 6.3885 1.3 0.0 0.8 0.9 0.0 0.95 0.9 0.0 0.95 2.0 0.65 2.0 0.65
pair_coeff * * oxdna2/stk seqdep 300 8.06199211612242 0.005309213 0.70439070204273 3.4072 7.6662 2.72576 6.3885 1.3 0.0 0.8 0.9 0.0 0.95 0.9 0.0 0.95 2.0 0.65 2.0 0.65
pair_coeff * * oxdna2/hbond seqdep 0.0 0.93918760272364 3.4072 6.3885 2.89612 5.9626 1.5 0.0 0.7 1.5 0 0.7 1.5 0 0.7 0.46 3.141592654 0.7 4.0 1.570796327 0.45 4.0 1.570796327 0.45

label loop
variable base loop ${ntype}
variable base loop 8
  variable basemod equal ${base}%4
  variable basemod equal 1%4
  if "${basemod} == 1" then     "variable comp equal ${base}+3"     "pair_coeff ${base} ${comp} oxdna2/hbond seqdep 6.36589157849259 0.93918760272364 3.4072 6.3885 2.89612 5.9626 1.5 0 0.7 1.5 0.0 0.7 1.5 0 0.7 0.46 3.141592654 0.7 4.0 1.570796327 0.45 4.0 1.570796327 0.45"
variable comp equal ${base}+3
variable comp equal 1+3
pair_coeff ${base} ${comp} oxdna2/hbond seqdep 6.36589157849259 0.93918760272364 3.4072 6.3885 2.89612 5.9626 1.5 0 0.7 1.5 0.0 0.7 1.5 0 0.7 0.46 3.141592654 0.7 4.0 1.570796327 0.45 4.0 1.570796327 0.45
pair_coeff 1 ${comp} oxdna2/hbond seqdep 6.36589157849259 0.93918760272364 3.4072 6.3885 2.89612 5.9626 1.5 0 0.7 1.5 0.0 0.7 1.5 0 0.7 0.46 3.141592654 0.7 4.0 1.570796327 0.45 4.0 1.570796327 0.45
pair_coeff 1 4 oxdna2/hbond seqdep 6.36589157849259 0.93918760272364 3.4072 6.3885 2.89612 5.9626 1.5 0 0.7 1.5 0.0 0.7 1.5 0 0.7 0.46 3.141592654 0.7 4.0 1.570796327 0.45 4.0 1.570796327 0.45
  if "${basemod} == 2" then     "variable comp equal ${base}+1"     "pair_coeff ${base} ${comp} oxdna2/hbond seqdep 6.36589157849259 0.93918760272364 3.4072 6.3885 2.89612 5.9626 1.5 0 0.7 1.5 0.0 0.7 1.5 0 0.7 0.46 3.141592654 0.7 4.0 1.570796327 0.45 4.0 1.570796327 0.45"
next base
jump in.duplex4.8type loop
variable base loop ${ntype}
variable base loop 8
  variable basemod equal ${base}%4
  variable basemod equal 2%4
  if "${basemod} == 1" then     "variable comp equal ${base}+3"     "pair_coeff ${base} ${comp} oxdna2/hbond seqdep 6.36589157849259 0.93918760272364 3.4072 6.3885 2.89612 5.9626 1.5 0 0.7 1.5 0.0 0.7 1.5 0 0.7 0.46 3.141592654 0.7 4.0 1.570796327 0.45 4.0 1.570796327 0.45"
  if "${basemod} == 2" then     "variable comp equal ${base}+1"     "pair_coeff ${base} ${comp} oxdna2/hbond seqdep 6.36589157849259 0.93918760272364 3.4072 6.3885 2.89612 5.9626 1.5 0 0.7 1.5 0.0 0.7 1.5 0 0.7 0.46 3.141592654 0.7 4.0 1.570796327 0.45 4.0 1.570796327 0.45"
variable comp equal ${base}+1
variable comp equal 2+1
pair_coeff ${base} ${comp} oxdna2/hbond seqdep 6.36589157849259 0.93918760272364 3.4072 6.3885 2.89612 5.9626 1.5 0 0.7 1.5 0.0 0.7 1.5 0 0.7 0.46 3.141592654 0.7 4.0 1.570796327 0.45 4.0 1.570796327 0.45
pair_coeff 2 ${comp} oxdna2/hbond seqdep 6.36589157849259 0.93918760272364 3.4072 6.3885 2.89612 5.9626 1.5 0 0.7 1.5 0.0 0.7 1.5 0 0.7 0.46 3.141592654 0.7 4.0 1.570796327 0.45 4.0 1.570796327 0.45
pair_coeff 2 3 oxdna2/hbond seqdep 6.36589157849259 0.93918760272364 3.4072 6.3885 2.89612 5.9626 1.5 0 0.7 1.5 0.0 0.7 1.5 0 0.7 0.46 3.141592654 0.7 4.0 1.570796327 0.45 4.0 1.570796327 0.45
next base
jump in.duplex4.8type loop
variable base loop ${ntype}
variable base loop 8
  variable basemod equal ${base}%4
  variable basemod equal 3%4
  if "${basemod} == 1" then     "variable comp equal ${base}+3"     "pair_coeff ${base} ${comp} oxdna2/hbond seqdep 6.36589157849259 0.93918760272364 3.4072 6.3885 2.89612 5.9626 1.5 0 0.7 1.5 0.0 0.7 1.5 0 0.7 0.46 3.141592654 0.7 4.0 1.570796327 0.45 4.0 1.570796327 0.45"
  if "${basemod} == 2" then     "variable comp equal ${base}+1"     "pair_coeff ${base} ${comp} oxdna2/hbond seqdep 6.36589157849259 0.93918760272364 3.4072 6.3885 2.89612 5.9626 1.5 0 0.7 1.5 0.0 0.7 1.5 0 0.7 0.46 3.141592654 0.7 4.0 1.570796327 0.45 4.0 1.570796327 0.45"
next base
jump in.duplex4.8type loop
variable base loop ${ntype}
variable base loop 8
  variable basemod equal ${base}%4
  variable basemod equal 4%4
  if "${basemod} == 1" then     "variable comp equal ${base}+3"     "pair_coeff ${base} ${comp} oxdna2/hbond seqdep 6.36589157849259 0.93918760272364 3.4072 6.3885 2.89612 5.9626 1.5 0 0.7 1.5 0.0 0.7 1.5 0 0.7 0.46 3.141592654 0.7 4.0 1.570796327 0.45 4.0 1.570796327 0.45"
  if "${basemod} == 2" then     "variable comp equal ${base}+1"     "pair_coeff ${base} ${comp} oxdna2/hbond seqdep 6.36589157849259 0.93918760272364 3.4072 6.3885 2.89612 5.9626 1.5 0 0.7 1.5 0.0 0.7 1.5 0 0.7 0.46 3.141592654 0.7 4.0 1.570796327 0.45 4.0 1.570796327 0.45"
next base
jump in.duplex4.8type loop
variable base loop ${ntype}
variable base loop 8
  variable basemod equal ${base}%4
  variable basemod equal 5%4
  if "${basemod} == 1" then     "variable comp equal ${base}+3"     "pair_coeff ${base} ${comp} oxdna2/hbond seqdep 6.36589157849259 0.93918760272364 3.4072 6.3885 2.89612 5.9626 1.5 0 0.7 1.5 0.0 0.7 1.5 0 0.7 0.46 3.141592654 0.7 4.0 1.570796327 0.45 4.0 1.570796327 0.45"
variable comp equal ${base}+3
variable comp equal 5+3
pair_coeff ${base} ${comp} oxdna2/hbond seqdep 6.36589157849259 0.93918760272364 3.4072 6.3885 2.89612 5.9626 1.5 0 0.7 1.5 0.0 0.7 1.5 0 0.7 0.46 3.141592654 0.7 4.0 1.570796327 0.45 4.0 1.570796327 0.45
pair_coeff 5 ${comp} oxdna2/hbond seqdep 6.36589157849259 0.93918760272364 3.4072 6.3885 2.89612 5.9626 1.5 0 0.7 1.5 0.0 0.7 1.5 0 0.7 0.46 3.141592654 0.7 4.0 1.570796327 0.45 4.0 1.570796327 0.45
pair_coeff 5 8 oxdna2/hbond seqdep 6.36589157849259 0.93918760272364 3.4072 6.3885 2.89612 5.9626 1.5 0 0.7 1.5 0.0 0.7 1.5 0 0.7 0.46 3.141592654 0.7 4.0 1.570796327 0.45 4.0 1.570796327 0.45
  if "${basemod} == 2" then     "variable comp equal ${base}+1"     "pair_coeff ${base} ${comp} oxdna2/hbond seqdep 6.36589157849259 0.93918760272364 3.4072 6.3885 2.89612 5.9626 1.5 0 0.7 1.5 0.0 0.7 1.5 0 0.7 0.46 3.141592654 0.7 4.0 1.570796327 0.45 4.0 1.570796327 0.45"
next base
jump in.duplex4.8type loop
variable base loop ${ntype}
variable base loop 8
  variable basemod equal ${base}%4
  variable basemod equal 6%4
  if "${basemod} == 1" then     "variable comp equal ${base}+3"     "pair_coeff ${base} ${comp} oxdna2/hbond seqdep 6.36589157849259 0.93918760272364 3.4072 6.3885 2.89612 5.9626 1.5 0 0.7 1.5 0.0 0.7 1.5 0 0.7 0.46 3.141592654 0.7 4.0 1.570796327 0.45 4.0 1.570796327 0.45"
  if "${basemod} == 2" then     "variable comp equal ${base}+1"     "pair_coeff ${base} ${comp} oxdna2/hbond seqdep 6.36589157849259 0.93918760272364 3.4072 6.3885 2.89612 5.9626 1.5 0 0.7 1.5 0.0 0.7 1.5 0 0.7 0.46 3.141592654 0.7 4.0 1.570796327 0.45 4.0 1.570796327 0.45"
variable comp equal ${base}+1
variable comp equal 6+1
pair_coeff ${base} ${comp} oxdna2/hbond seqdep 6.36589157849259 0.93918760272364 3.4072 6.3885 2.89612 5.9626 1.5 0 0.7 1.5 0.0 0.7 1.5 0 0.7 0.46 3.141592654 0.7 4.0 1.570796327 0.45 4.0 1.570796327 0.45
pair_coeff 6 ${comp} oxdna2/hbond seqdep 6.36589157849259 0.93918760272364 3.4072 6.3885 2.89612 5.9626 1.5 0 0.7 1.5 0.0 0.7 1.5 0 0.7 0.46 3.141592654 0.7 4.0 1.570796327 0.45 4.0 1.570796327 0.45
pair_coeff 6 7 oxdna2/hbond seqdep 6.36589157849259 0.93918760272364 3.4072 6.3885 2.89612 5.9626 1.5 0 0.7 1.5 0.0 0.7 1.5 0 0.7 0.46 3.141592654 0.7 4.0 1.570796327 0.45 4.0 1.570796327 0.45
next base
jump in.duplex4.8type loop
variable base loop ${ntype}
variable base loop 8
  variable basemod equal ${base}%4
  variable basemod equal 7%4
  if "${basemod} == 1" then     "variable comp equal ${base}+3"     "pair_coeff ${base} ${comp} oxdna2/hbond seqdep 6.36589157849259 0.93918760272364 3.4072 6.3885 2.89612 5.9626 1.5 0 0.7 1.5 0.0 0.7 1.5 0 0.7 0.46 3.141592654 0.7 4.0 1.570796327 0.45 4.0 1.570796327 0.45"
  if "${basemod} == 2" then     "variable comp equal ${base}+1"     "pair_coeff ${base} ${comp} oxdna2/hbond seqdep 6.36589157849259 0.93918760272364 3.4072 6.3885 2.89612 5.9626 1.5 0 0.7 1.5 0.0 0.7 1.5 0 0.7 0.46 3.141592654 0.7 4.0 1.570796327 0.45 4.0 1.570796327 0.45"
next base
jump in.duplex4.8type loop
variable base loop ${ntype}
variable base loop 8
  variable basemod equal ${base}%4
  variable basemod equal 8%4
  if "${basemod} == 1" then     "variable comp equal ${base}+3"     "pair_coeff ${base} ${comp} oxdna2/hbond seqdep 6.36589157849259 0.93918760272364 3.4072 6.3885 2.89612 5.9626 1.5 0 0.7 1.5 0.0 0.7 1.5 0 0.7 0.46 3.141592654 0.7 4.0 1.570796327 0.45 4.0 1.570796327 0.45"
  if "${basemod} == 2" then     "variable comp equal ${base}+1"     "pair_coeff ${base} ${comp} oxdna2/hbond seqdep 6.36589157849259 0.93918760272364 3.4072 6.3885 2.89612 5.9626 1.5 0 0.7 1.5 0.0 0.7 1.5 0 0.7 0.46 3.141592654 0.7 4.0 1.570796327 0.45 4.0 1.570796327 0.45"
next base
jump in.duplex4.8type loop

pair_coeff * * oxdna2/xstk 3.9029021145006 4.89785 5.74965 4.21641 5.57929 2.25 0.791592654 0.58 1.7 1.0 0.68 1.7 1.0 0.68 1.5 0 0.65 1.7 0.875 0.68 1.7 0.875 0.68
pair_coeff * * oxdna2/coaxstk 4.80673207785863 3.4072 5.1108 1.87396 4.94044 2.0 2.891592653589793 0.65 1.3 0 0.8 0.9 0 0.95 0.9 0 0.95 40.0 3.116592653589793
pair_coeff * * oxdna2/dh ${T} ${rhos} 0.815
pair_coeff * * oxdna2/dh 300 ${rhos} 0.815
pair_coeff * * oxdna2/dh 300 0.2 0.815

# Langevin dynamics
fix 1 all nve/asphere
fix 2 all langevin ${T} ${T} 4265.0 457145 angmom 10
fix 2 all langevin 300 ${T} 4265.0 457145 angmom 10
fix 2 all langevin 300 300 4265.0 457145 angmom 10

timestep 0.01706

#comm_style tiled
fix 3 all balance 1000 1.03 shift xyz 10 1.03
comm_modify cutoff 32.4

compute quat all property/atom quatw quati quatj quatk

compute erot all erotate/asphere
compute ekin all ke
compute epot all pe
variable erot equal c_erot
variable ekin equal c_ekin
variable epot equal c_epot
variable etot equal c_erot+c_ekin+c_epot
fix 5 all print ${efreq} "$(step)  ekin = ${ekin} |  erot = ${erot} | epot = ${epot} | etot = ${etot}" screen yes
fix 5 all print 1000 "$(step)  ekin = ${ekin} |  erot = ${erot} | epot = ${epot} | etot = ${etot}" screen yes

dump out all custom ${ofreq} out.${number}.lammpstrj id mol type x y z ix iy iz vx vy vz c_quat[1] c_quat[2] c_quat[3] c_quat[4] angmomx angmomy angmomz
dump out all custom 1000 out.${number}.lammpstrj id mol type x y z ix iy iz vx vy vz c_quat[1] c_quat[2] c_quat[3] c_quat[4] angmomx angmomy angmomz
dump out all custom 1000 out.8.lammpstrj id mol type x y z ix iy iz vx vy vz c_quat[1] c_quat[2] c_quat[3] c_quat[4] angmomx angmomy angmomz
dump_modify out sort id
dump_modify out format line "%d %d %d  %22.15le %22.15le %22.15le  %d %d %d  %22.15le %22.15le %22.15le  %22.15le %22.15le %22.15le %22.15le  %22.15le %22.15le %22.15le"

run 1000000
Generated 0 of 28 mixed pair_coeff terms from geometric mixing rule
Neighbor list info ...
  update: every = 10 steps, delay = 0 steps, check = yes
  max neighbors/atom: 2000, page size: 100000
  master list distance cutoff = 48.032697
  ghost atom cutoff = 48.032697
  binsize = 24.016348, bins = 15 15 15
  5 neighbor lists, perpetual/occasional/extra = 5 0 0
  (1) pair oxdna2/excv, perpetual
      attributes: half, newton on
      pair build: half/bin/newton
      stencil: half/bin/3d
      bin: standard
  (2) pair oxdna2/hbond, perpetual, copy from (1)
      attributes: half, newton on
      pair build: copy
      stencil: none
      bin: none
  (3) pair oxdna2/xstk, perpetual, copy from (1)
      attributes: half, newton on
      pair build: copy
      stencil: none
      bin: none
  (4) pair oxdna2/coaxstk, perpetual, copy from (1)
      attributes: half, newton on
      pair build: copy
      stencil: none
      bin: none
  (5) pair oxdna2/dh, perpetual, copy from (1)
      attributes: half, newton on
      pair build: copy
      stencil: none
      bin: none
WARNING: Communication cutoff adjusted to 48.03269686950012 (../comm.cpp:739)
0  ekin = 22.349486974586 |  erot = 20.578245994282 | epot = -222.813067990178 | etot = -179.88533502131
Per MPI rank memory allocation (min/avg/max) = 7.57 | 7.57 | 7.57 Mbytes
   Step          Temp          E_pair         E_mol          TotEng         Press          Volume    
         0   299.91159     -228.12763      5.3145589     -200.46358      0.037365999    39304000     
1000  ekin = 22.8379863364631 |  erot = 20.8727077214658 | epot = -223.40247948455 | etot = -179.691785426621
2000  ekin = 22.7811305214841 |  erot = 22.642319354707 | epot = -224.256117760205 | etot = -178.832667884014
3000  ekin = 23.3007102476489 |  erot = 24.7866780853993 | epot = -225.012681837824 | etot = -176.925293504776
4000  ekin = 22.7903421051578 |  erot = 24.569247173836 | epot = -225.53962239349 | etot = -178.180033114497
5000  ekin = 22.19925646023 |  erot = 25.6289473462429 | epot = -225.721034396187 | etot = -177.892830589714
6000  ekin = 22.3860723428343 |  erot = 25.7078570981677 | epot = -225.520727206183 | etot = -177.426797765181
7000  ekin = 22.6093903901514 |  erot = 24.8279594754098 | epot = -225.139767140542 | etot = -177.702417274981
8000  ekin = 22.3366506221221 |  erot = 25.3490822995746 | epot = -224.659830672346 | etot = -176.97409775065
9000  ekin = 22.1017491922176 |  erot = 23.8561173282126 | epot = -224.102470196007 | etot = -178.144603675577
10000  ekin = 21.3469487217786 |  erot = 23.034985278251 | epot = -223.591750396367 | etot = -179.209816396337
   10000   307.12188     -227.88356      5.8434328     -199.15333      0.033370746    39304000     
Loop time of 85.8602 on 1 procs for 1000000 steps with 26 atoms

Performance: 17.167 ns/day, 1.398 hours/ns, 11646.839 timesteps/s, 302.818 katom-step/s
99.7% CPU use with 1 MPI tasks x no OpenMP threads

MPI task timing breakdown:
Section |  min time  |  avg time  |  max time  |%varavg| %total
---------------------------------------------------------------
Pair    | 75.033     | 75.033     | 75.033     |   0.0 | 87.39
Bond    | 1.7719     | 1.7719     | 1.7719     |   0.0 |  2.06
Neigh   | 0.023059   | 0.023059   | 0.023059   |   0.0 |  0.03
Comm    | 0.51625    | 0.51625    | 0.51625    |   0.0 |  0.60
Output  | 0.31488    | 0.31488    | 0.31488    |   0.0 |  0.37
Modify  | 7.8149     | 7.8149     | 7.8149     |   0.0 |  9.10
Other   |            | 0.3861     |            |       |  0.45

Nlocal:             26 ave          26 max          26 min
Histogram: 1 0 0 0 0 0 0 0 0 0
Nghost:              0 ave           0 max           0 min
Histogram: 1 0 0 0 0 0 0 0 0 0
Neighs:            301 ave         301 max         301 min
Histogram: 1 0 0 0 0 0 0 0 0 0

Total # of neighbors = 301
Ave neighs/atom = 11.576923
Ave special neighs/atom = 5.0769231
Neighbor list builds = 1000
Dangerous builds = 0

write_data last_config.${number}.* nocoeff
write_data last_config.8.* nocoeff
System init for write_data ...
Generated 0 of 28 mixed pair_coeff terms from geometric mixing rule
#write_restart last_config.${number}.*
Total wall time: 0:01:25
