LAMMPS (10 Sep 2025 - Development - 892ed7cb91-modified)
  using 1 OpenMP thread(s) per MPI task
processors      * * * map xyz

units           real
atom_style      full
boundary        p p p

read_data       initial.data
Reading data file ...
  orthogonal box = (0.00033828339 0.00033828339 0.00033828339) to (19.655503 19.655503 19.655503)
  1 by 1 by 1 MPI processor grid
  reading atoms ...
  768 atoms
  reading velocities ...
  768 velocities
  scanning bonds ...
  2 = max bonds/atom
  scanning angles ...
  1 = max angles/atom
  orthogonal box = (0.00033828339 0.00033828339 0.00033828339) to (19.655503 19.655503 19.655503)
  1 by 1 by 1 MPI processor grid
  reading bonds ...
  512 bonds
  reading angles ...
  256 angles
Finding 1-2 1-3 1-4 neighbors ...
  special bond factors lj:    0        0        0       
  special bond factors coul:  0        0        0       
     2 = max # of 1-2 neighbors
     1 = max # of 1-3 neighbors
     1 = max # of 1-4 neighbors
     2 = max # of special neighbors
  special bonds CPU = 0.001 seconds
  read_data CPU = 0.027 seconds
#read_restart    restart.old

pair_style      mbx 9.0
pair_modify     mix arithmetic

bond_style      none
angle_style     none
dihedral_style  none
improper_style  none

pair_coeff      * * 1 h2o 1 2 2 json mbx.json

neighbor        2.0 bin
neigh_modify    every 1 delay 10

timestep        0.5

compute         mbx all pair mbx
variable        e1bpip    equal c_mbx[1]
variable        e2bpip    equal c_mbx[2]
variable        e3bpip    equal c_mbx[3]
variable        e4bpip    equal c_mbx[4]
variable        edisp     equal c_mbx[5]
variable        ebuck     equal c_mbx[6]
variable        eperm     equal c_mbx[7]
variable        eind      equal c_mbx[8]
variable        eele      equal c_mbx[9]
variable        etot      equal c_mbx[10]

fix             1 all npt temp 298 298 200 iso 1.0 1.0 2000

velocity        all create 298 428459 rot yes dist gaussian
velocity        all zero linear
velocity        all zero angular

thermo_style    custom step time temp etotal ke pe enthalpy density lx ly lz vol pxx pyy pzz press
thermo          1
thermo_modify   flush yes

fix             thermo_print all print 1 "$(step) $(0.001*time) $(temp) $(etotal) $(ke) $(pe) $(enthalpy) $(density) $(lx) $(ly) $(lz) $(vol) $(pxx) $(pyy) $(pzz) $(press)" file thermo.out screen no title "# step time temp etotal ke pe enthalpy density lx ly lz vol pxx pyy pzz press"
fix             verbose_mbx_thermo_print all print 1 "$(step) $(0.001*time) $(temp) $(etotal) $(ke) $(pe) $(enthalpy) $(density) $(lx) $(ly) $(lz) $(vol) $(pxx) $(pyy) $(pzz) $(press) $(v_e1bpip) $(v_e2bpip) $(v_e3bpip) $(v_e4bpip) $(v_edisp) $(v_ebuck) $(v_eperm) $(v_eind) $(v_eele) $(v_etot)" file mbx_thermo.out screen no title "# step time temp etotal ke pe enthalpy density lx ly lz vol pxx pyy pzz press e1bpip e2bpip e3bpip e4bpip edisp ebuck eperm eind eele etot"

dump            1 all custom 1 dump.lammpstrj id mol type q x y z
dump_modify     1 append no sort id format line "%d %d %d %8.4f %15.8f %15.8f %15.8f"

restart         10 restart.1 restart.2

run             100  upto

CITE-CITE-CITE-CITE-CITE-CITE-CITE-CITE-CITE-CITE-CITE-CITE-CITE

Your simulation uses code contributions which should be cited:

- pair mbx command:

@article{10.1063/5.0156036,
 author = {Riera, Marc and Knight, Christopher and Bull-Vulpe, Ethan F. and Zhu, Xuanyu and Agnew, Henry and Smith, Daniel G. A. and Simmonett, Andrew C. and Paesani, Francesco},
 title = "{MBX: A many-body energy and force calculator for data-driven many-body simulations}",
 journal = {The Journal of Chemical Physics},
 volume = {159},
 number = {5},
 pages = {054802},
 year = {2023},
 doi = {10.1063/5.0156036},
}

CITE-CITE-CITE-CITE-CITE-CITE-CITE-CITE-CITE-CITE-CITE-CITE-CITE

Generated 0 of 1 mixed pair_coeff terms from arithmetic mixing rule
WARNING: Bonds are defined but no bond style is set (src/force.cpp:198)
WARNING: Likewise 1-2 special neighbor interactions != 1.0 (src/force.cpp:200)
WARNING: Angles are defined but no angle style is set (src/force.cpp:203)
WARNING: Likewise 1-3 special neighbor interactions != 1.0 (src/force.cpp:205)
Neighbor list info ...
  update: every = 1 steps, delay = 10 steps, check = yes
  max neighbors/atom: 2000, page size: 100000
  master list distance cutoff = 11
  ghost atom cutoff = 11
  binsize = 5.5, bins = 4 4 4
  1 neighbor lists, perpetual/occasional/extra = 1 0 0
  (1) pair mbx, perpetual
      attributes: half, newton on
      pair build: half/bin/newton
      stencil: half/bin/3d
      bin: standard
WARNING: Inconsistent image flags
For more information see https://docs.lammps.org/err0027 (src/domain.cpp:1052)
Per MPI rank memory allocation (min/avg/max) = 8.503 | 8.503 | 8.503 Mbytes
   Step          Time           Temp          TotEng         KinEng         PotEng        Enthalpy       Density           Lx             Ly             Lz           Volume          Pxx            Pyy            Pzz           Press     
         0   0              298           -1731.1398      681.31183     -2412.4517     -1661.3647      1.0085627      19.655164      19.655164      19.655164      7593.2911      2460.2105     -301.45156     -268.52225      630.07891    
         1   0.5            305.62977     -1731.7842      698.75562     -2430.5398     -1604.5002      1.0085626      19.655165      19.655165      19.655165      7593.2912      3138.8379     -41.775139      351.11127      1149.3914    
         2   1              307.94828     -1731.9039      704.05639     -2435.9603     -1540.7285      1.0085626      19.655165      19.655165      19.655165      7593.2917      3740.8128      267.38876      1170.8154      1726.339     
         3   1.5            304.02378     -1731.5147      695.08387     -2426.5986     -1475.0425      1.0085624      19.655166      19.655166      19.655166      7593.2928      4211.487       588.21423      2148.2314      2315.9776    
         4   2              296.3398      -1730.8363      677.51614     -2408.3524     -1422.9523      1.0085622      19.655168      19.655168      19.655168      7593.2947      4416.0674      811.33489      3113.2929      2780.2317    
         5   2.5            289.33292     -1730.2083      661.49644     -2391.7047     -1404.3418      1.0085618      19.65517       19.65517       19.65517       7593.2976      4201.258       805.22737      3821.3587      2942.6147    
         6   3              287.0428      -1730.0043      656.26058     -2386.2649     -1433.7989      1.0085613      19.655173      19.655173      19.655173      7593.3015      3487.5716      489.3409       4047.3976      2674.77      
         7   3.5            290.73119     -1730.3843      664.6933      -2395.0776     -1511.774       1.0085606      19.655178      19.655178      19.655178      7593.3063      2343.9941     -107.69746      3685.9313      1974.076     
         8   4              297.97423     -1731.1082      681.25292     -2412.3612     -1622.0422      1.0085599      19.655182      19.655182      19.655182      7593.3118      993.35598     -842.91784      2804.1965      984.87822    
         9   4.5            304.14494     -1731.7165      695.3609      -2427.0774     -1737.8652      1.0085591      19.655187      19.655187      19.655187      7593.3177     -267.10169     -1515.2753      1615.8072     -55.523267    
        10   5              305.26002     -1731.8818      697.91028     -2429.7921     -1833.3177      1.0085584      19.655192      19.655192      19.655192      7593.3235     -1189.0954     -1953.3078      394.47793     -915.9751     
        11   5.5            300.12367     -1731.5775      686.16713     -2417.7446     -1892.8469      1.0085576      19.655197      19.655197      19.655197      7593.329      -1667.8067     -2081.1276     -619.89483     -1456.2764    
        12   6              290.63656     -1730.9982      664.47694     -2395.4751     -1914.6218      1.008557       19.655202      19.655202      19.655202      7593.334      -1757.1247     -1930.2368     -1287.045      -1658.1355    
        13   6.5            280.64064     -1730.3794      641.62345     -2372.0029     -1907.5679      1.0085564      19.655205      19.655205      19.655205      7593.3385     -1608.6551     -1604.9813     -1586.4395     -1600.0253    
        14   7              274.32978     -1729.9159      627.19506     -2357.111      -1884.857       1.0085558      19.655209      19.655209      19.655209      7593.3424     -1381.9485     -1230.8256     -1584.6129     -1399.129     
        15   7.5            274.75047     -1729.8294      628.15687     -2357.9863     -1856.8501      1.0085554      19.655212      19.655212      19.655212      7593.3458     -1172.959      -903.58816     -1364.4705     -1147.0059    
        16   8              282.29442     -1730.2951      645.40446     -2375.6996     -1825.3457      1.008555       19.655214      19.655214      19.655214      7593.3488     -977.44206     -643.85668     -953.63857     -858.31244    
        17   8.5            293.79065     -1731.1727      671.68806     -2402.8608     -1781.8203      1.0085546      19.655217      19.655217      19.655217      7593.3515     -697.51191     -376.66995     -297.8692      -457.35035    
        18   9              303.57648     -1731.9671      694.06124     -2426.0284     -1712.7454      1.0085543      19.655219      19.655219      19.655219      7593.3541     -200.89893      29.53272       692.08679      173.57353    
        19   9.5            306.60985     -1732.1815      700.99638     -2433.1779     -1610.4528      1.0085539      19.655221      19.655221      19.655221      7593.3567      586.87388      666.87431      2043.902       1099.2167    
        20   10             301.52253     -1731.7191      689.36532     -2421.0844     -1482.6944      1.0085535      19.655224      19.655224      19.655224      7593.3597      1606.7532      1495.6374      3643.7265      2248.7057    
        21   10.5           291.28801     -1730.8937      665.96633     -2396.86       -1353.7171      1.008553       19.655227      19.655227      19.655227      7593.3635      2653.0654      2329.5701      5235.1277      3405.9211    
        22   11             281.35379     -1730.1055      643.25392     -2373.3594     -1256.0245      1.0085524      19.655231      19.655231      19.655231      7593.3684      3434.736       2910.4969      6497.6771      4280.97      
        23   11.5           276.94977     -1729.6894      633.18509     -2362.8745     -1218.055       1.0085515      19.655237      19.655237      19.655237      7593.3749      3689.069       3018.2617      7152.8935      4620.0747    
        24   12             280.71601     -1729.8861      641.79576     -2371.6818     -1252.9313      1.0085505      19.655244      19.655244      19.655244      7593.3829      3299.192       2567.2073      7054.3368      4306.912     
        25   12.5           291.22102     -1730.6505      665.81318     -2396.4637     -1352.1728      1.0085492      19.655252      19.655252      19.655252      7593.3925      2359.2764      1657.1233      6236.5744      3417.658     
        26   13             303.35169     -1731.6071      693.5473      -2425.1544     -1488.0914      1.0085478      19.655261      19.655261      19.655261      7593.4032      1148.6477      546.78858      4901.404       2198.9468    
        27   13.5           310.70541     -1732.303       710.35997     -2442.663      -1624.5068      1.0085462      19.655271      19.655271      19.655271      7593.4147      20.469788     -447.11387      3346.8377      973.39787    
        28   14             308.57397     -1732.4431      705.4869      -2437.93       -1730.3506      1.0085447      19.655281      19.655281      19.655281      7593.4265     -741.95167     -1075.9382      1874.5759      18.895345    
        29   14.5           295.9942      -1731.9492      676.72601     -2408.6753     -1789.8798      1.0085431      19.655292      19.655292      19.655292      7593.4383     -1031.2162     -1247.0949      708.979       -523.1107     
        30   15             276.29813     -1730.9677      631.69524     -2362.663      -1806.1121      1.0085416      19.655302      19.655302      19.655302      7593.45       -937.50277     -1040.4137     -57.730541     -678.54902    
        31   15.5           256.02887     -1729.8892      585.35402     -2315.2432     -1796.5221      1.00854        19.655311      19.655311      19.655311      7593.4614     -678.77299     -654.65297     -471.64645     -601.69081    
        32   16             242.25941     -1729.2288      553.87316     -2283.102      -1782.1453      1.0085385      19.655321      19.655321      19.655321      7593.4726     -470.44884     -307.94322     -655.10225     -477.83144    
        33   16.5           239.26812     -1729.3219      547.03424     -2276.3562     -1774.9349      1.0085371      19.655331      19.655331      19.655331      7593.4837     -400.03825     -130.83494     -704.76891     -411.8807     
        34   17             246.38197     -1730.1208      563.29849     -2293.4193     -1770.1004      1.0085356      19.65534       19.65534       19.65534       7593.4946     -374.19277     -97.269865     -611.57105     -361.01123    
        35   17.5           258.27016     -1731.2334      590.47823     -2321.7117     -1747.956       1.0085342      19.655349      19.655349      19.655349      7593.5054     -166.21266     -30.850062     -255.94681     -151.00318    
        36   18             267.49355     -1732.1442      611.5655      -2343.7097     -1684.4393      1.0085328      19.655359      19.655359      19.655359      7593.5161      465.00829      308.47582      518.82215      430.76875    
        37   18.5           267.95561     -1732.4441      612.62191     -2345.066      -1565.1195      1.0085313      19.655368      19.655368      19.655368      7593.527       1644.658       1091.6824      1796.4076      1510.916     
        38   19             257.66967     -1731.9833      589.10535     -2321.0886     -1395.868       1.0085298      19.655378      19.655378      19.655378      7593.5384      3298.0454      2307.8278      3499.3254      3035.0662    
        39   19.5           239.76223     -1730.935       548.1639      -2279.0989     -1205.2569      1.0085282      19.655389      19.655389      19.655389      7593.5509      5145.138       3730.0837      5365.1166      4746.7795    
        40   20             221.24455     -1729.7727      505.82729     -2235.6        -1036.9051      1.0085263      19.655401      19.655401      19.655401      7593.565       6781.4557      4985.2606      7002.6636      6256.46      
        41   20.5           209.80702     -1729.0807      479.67787     -2208.7586     -933.90485      1.0085241      19.655415      19.655415      19.655415      7593.5813      7822.2454      5703.3147      8015.2436      7180.2679    
        42   21             209.99926     -1729.2308      480.11738     -2209.3482     -921.86776      1.0085216      19.655431      19.655431      19.655431      7593.6         8051.8665      5675.9599      8143.0664      7290.2976    
        43   21.5           220.80014     -1730.1668      504.81124     -2234.978      -998.60538      1.0085188      19.655449      19.655449      19.655449      7593.6213      7504.9925      4947.6333      7364.7983      6605.8081    
        44   22             236.02422     -1731.3847      539.61776     -2271.0025     -1135.5586      1.0085157      19.65547       19.65547       19.65547       7593.6449      6438.2252      3798.35        5903.8382      5380.1378    
        45   22.5           247.50994     -1732.2714      565.87734     -2298.1487     -1290.6029      1.0085123      19.655492      19.655492      19.655492      7593.6703      5211.2009      2625.8532      4127.3222      3988.1254    
        46   23             249.08008     -1732.4818      569.46713     -2301.949      -1425.2771      1.0085087      19.655515      19.655515      19.655515      7593.6971      4140.0062      1782.0103      2399.8348      2773.9504    
        47   23.5           239.04113     -1731.9521      546.51527     -2278.4674     -1517.7485      1.008505       19.655539      19.655539      19.655539      7593.7249      3386.4215      1446.1246      969.98387      1934.1767    
        48   24             220.74272     -1730.8443      504.67996     -2235.5242     -1567.6124      1.0085013      19.655563      19.655563      19.655563      7593.7534      2921.5284      1581.461      -81.242417      1473.9157    
        49   24.5           201.35919     -1729.5995      460.36375     -2189.9633     -1591.691       1.0084974      19.655588      19.655588      19.655588      7593.7823      2578.045       1976.5107     -818.80158      1245.2514    
        50   25             188.87618     -1728.8099      431.82408     -2160.634      -1612.0142      1.0084935      19.655614      19.655614      19.655614      7593.8117      2171.8963      2353.056      -1361.1277      1054.6082    
        51   25.5           188.23533     -1728.8819      430.35891     -2159.2408     -1641.2084      1.0084896      19.655639      19.655639      19.655639      7593.8415      1631.6         2506.2393     -1762.901       791.64609    
        52   26             198.76965     -1729.7477      454.44334     -2184.1911     -1673.4439      1.0084856      19.655665      19.655665      19.655665      7593.8715      1058.1467      2412.9836     -1945.9535      508.39226    
        53   26.5           214.62257     -1730.915       490.68757     -2221.6026     -1686.5101      1.0084816      19.655691      19.655691      19.655691      7593.9018      681.07468      2245.5774     -1723.8007      400.95046    
        54   27             227.8898      -1731.7806      521.02019     -2252.8008     -1654.0231      1.0084775      19.655718      19.655718      19.655718      7593.9321      741.76289      2272.2786     -907.73878      702.1009     
        55   27.5           232.57362     -1731.9424      531.72872     -2263.6711     -1560.8792      1.0084735      19.655744      19.655744      19.655744      7593.9627      1367.8996      2698.0653      567.79459      1544.5865    
        56   28             227.35181     -1731.3261      519.7902      -2251.1163     -1414.0107      1.0084693      19.655771      19.655771      19.655771      7593.9938      2493.1166      3534.5606      2567.7275      2865.1349    
        57   28.5           216.08497     -1730.2224      494.03103     -2224.2534     -1243.353       1.0084651      19.655799      19.655799      19.655799      7594.026       3853.9687      4568.4911      4765.7449      4396.0682    
        58   29             205.84545     -1729.1987      470.6206      -2199.8193     -1092.3101      1.0084606      19.655828      19.655828      19.655828      7594.0596      5069.5314      5443.186       6739.1003      5750.6059    
        59   29.5           203.19122     -1728.7984      464.5523      -2193.3507     -1001.3698      1.0084559      19.655858      19.655858      19.655858      7594.0953      5778.6304      5813.9448      8111.6658      6568.0803    
        60   30             210.74162     -1729.1342      481.81463     -2210.9489     -992.81127      1.0084508      19.655891      19.655891      19.655891      7594.1332      5775.5056      5494.4802      8675.081       6648.3556    
        61   30.5           226.34445     -1729.8659      517.48708     -2247.353      -1064.4784      1.0084455      19.655926      19.655926      19.655926      7594.1734      5079.7855      4519.7026      8424.0256      6007.8379    
        62   31             244.94125     -1730.6229      560.00459     -2290.6275     -1194.3514      1.0084399      19.655962      19.655962      19.655962      7594.2157      3911.485       3114.4498      7500.1034      4842.0127    
        63   31.5           260.90962     -1731.2459      596.5128      -2327.7587     -1350.4452      1.008434       19.656         19.656         19.656         7594.2597      2590.338       1610.6819      6113.7043      3438.2414    
        64   32             269.55753     -1731.5309      616.28433     -2347.8152     -1500.795       1.008428       19.656039      19.656039      19.656039      7594.3049      1408.8093      340.11617      4500.9655      2083.297     
        65   32.5           268.6828      -1731.1933      614.28447     -2345.4777     -1623.0758      1.0084219      19.656079      19.656079      19.656079      7594.3508      530.70319     -486.18215      2884.0134      976.17816    
        66   33             260.13939     -1730.2625      594.75183     -2325.0143     -1711.3571      1.0084158      19.656119      19.656119      19.656119      7594.397      -44.248615     -854.55821      1410.8874      170.69351    
        67   33.5           249.53399     -1729.1667      570.50491     -2299.6716     -1774.867       1.0084096      19.656159      19.656159      19.656159      7594.4433     -437.84872     -928.2486       128.24739     -412.61664    
        68   34             243.52641     -1728.4444      556.76987     -2285.2143     -1828.3938      1.0084035      19.656198      19.656198      19.656198      7594.4895     -794.75006     -938.26787     -974.22299     -902.41364    
        69   34.5           246.36599     -1728.4286      563.26197     -2291.6906     -1880.1808      1.0083974      19.656238      19.656238      19.656238      7594.5354     -1179.0106     -1045.261      -1886.0825     -1370.118     
        70   35             257.67725     -1729.0892      589.12269     -2318.2118     -1924.3085      1.0083914      19.656277      19.656277      19.656277      7594.5807     -1517.4931     -1244.8677     -2525.3101     -1762.557     
        71   35.5           272.6891      -1730.0232      623.44399     -2353.4671     -1942.1614      1.0083855      19.656316      19.656316      19.656316      7594.6255     -1624.4459     -1370.1876     -2751.2668     -1915.3001    
        72   36             284.81413     -1730.6964      651.16523     -2381.8616     -1912.4297      1.0083796      19.656354      19.656354      19.656354      7594.6696     -1294.6852     -1193.9885     -2433.6612     -1640.7783    
        73   36.5           289.11928     -1730.7379      661.008       -2391.7459     -1824.2636      1.0083738      19.656391      19.656391      19.656391      7594.7131     -419.15128     -575.73855     -1538.2824     -844.39073    
        74   37             284.81234     -1730.0981      651.16113     -2381.2592     -1686.2978      1.0083681      19.656429      19.656429      19.656429      7594.7564      936.7769       429.48194     -179.92152      395.44577    
        75   37.5           275.58979     -1729.0748      630.07579     -2359.1506     -1526.7706      1.0083623      19.656466      19.656466      19.656466      7594.7998      2529.1835      1561.1674      1389.0601      1826.4703    
        76   38             267.65509     -1728.2021      611.93483     -2340.1369     -1384.2324      1.0083565      19.656504      19.656504      19.656504      7594.8438      4009.9998      2453.4323      2852.9369      3105.4563    
        77   38.5           266.28784     -1727.9339      608.80891     -2336.7428     -1292.8056      1.0083505      19.656543      19.656543      19.656543      7594.8889      5048.8702      2799.3567      3937.0883      3928.4384    
        78   39             272.99281     -1728.3094      624.13836     -2352.4478     -1269.533       1.0083443      19.656583      19.656583      19.656583      7594.9354      5447.1789      2489.9938      4488.5699      4141.9142    
        79   39.5           285.12835     -1728.9884      651.88362     -2380.8721     -1310.5862      1.0083379      19.656624      19.656624      19.656624      7594.9833      5191.185       1651.0138      4489.9581      3777.3856    
        80   40             297.88365     -1729.5917      681.04583     -2410.6376     -1397.027       1.0083314      19.656667      19.656667      19.656667      7595.0325      4424.8147      569.67697      4012.7519      3002.4145    
        81   40.5           306.71544     -1729.9098      701.23778     -2431.1476     -1504.5386      1.0083247      19.65671       19.65671       19.65671       7595.0827      3370.8091     -431.23667      3164.3813      2034.6513    
        82   41             308.98201     -1729.8123      706.41979     -2436.2321     -1612.1351      1.008318       19.656754      19.656754      19.656754      7595.1337      2242.5476     -1112.0634      2056.6629      1062.3824    
        83   41.5           304.79332     -1729.3255      696.84326     -2426.1688     -1707.9571      1.0083112      19.656799      19.656799      19.656799      7595.185       1185.4614     -1388.1754      781.44798      192.9113     
        84   42             296.75933     -1728.68        678.47532     -2407.1553     -1790.2466      1.0083043      19.656843      19.656843      19.656843      7595.2364      264.077       -1335.8251     -595.68735     -555.81181    
        85   42.5           288.65811     -1728.0533      659.95365     -2388.007      -1863.1908      1.0082975      19.656887      19.656887      19.656887      7595.2876     -514.22146     -1136.6369     -2009.1061     -1219.9881    
        86   43             284.10859     -1727.6058      649.55216     -2377.158      -1931.41        1.0082908      19.656931      19.656931      19.656931      7595.3384     -1162.5049     -989.33089     -3367.8115     -1839.8824    
        87   43.5           285.32742     -1727.5616      652.33874     -2379.9003     -1994.6843      1.0082841      19.656974      19.656974      19.656974      7595.3886     -1678.9845     -1013.4484     -4542.0277     -2411.4869    
        88   44             291.83208     -1727.9784      667.21023     -2395.1887     -2044.1947      1.0082776      19.657017      19.657017      19.657017      7595.4379     -2017.8685     -1184.8644     -5361.27       -2854.6676    
        89   44.5           300.22295     -1728.6092      686.39412     -2415.0033     -2063.7104      1.0082712      19.657058      19.657058      19.657058      7595.4862     -2085.0056     -1347.267      -5643.1296     -3025.1341    
        90   45             305.78705     -1729.0503      699.11521     -2428.1655     -2036.8115      1.0082649      19.657099      19.657099      19.657099      7595.5335     -1776.5244     -1305.5257     -5252.8601     -2778.3034    
        91   45.5           305.08632     -1728.9929      697.51316     -2426.5061     -1956.5685      1.0082588      19.657139      19.657139      19.657139      7595.5798     -1052.6896     -943.27363     -4167.291      -2054.4181    
        92   46             297.95467     -1728.4015      681.20819     -2409.6097     -1832.1569      1.0082527      19.657178      19.657178      19.657178      7595.6254     -3.9560276     -296.03234     -2509.9217     -936.63668    
        93   46.5           287.70504     -1727.5573      657.77466     -2385.3319     -1688.3097      1.0082467      19.657218      19.657218      19.657218      7595.6707      1140.6845      455.99614     -533.78064      354.30002    
        94   47             279.30807     -1726.9069      638.57682     -2365.4837     -1557.1173      1.0082407      19.657257      19.657257      19.657257      7595.7162      2081.044       1070.342       1446.8124      1532.7328    
        95   47.5           276.56396     -1726.7596      632.30302     -2359.0626     -1466.046       1.0082346      19.657296      19.657296      19.657296      7595.7621      2558.9456      1357.3371      3144.2535      2353.5121    
        96   48             280.13349     -1727.0709      640.46397     -2367.5348     -1428.6853      1.0082284      19.657337      19.657337      19.657337      7595.8089      2454.7459      1265.912       4360.044       2693.5673    
        97   48.5           287.69887     -1727.5398      657.76056     -2385.3003     -1442.8169      1.008222       19.657378      19.657378      19.657378      7595.8566      1814.9979      896.87905      4998.7724      2570.2164    
        98   49             295.70324     -1727.9207      676.0608      -2403.9815     -1495.186       1.0082156      19.65742       19.65742       19.65742       7595.9052      807.32553      444.24375      5051.1341      2100.9011    
        99   49.5           300.96205     -1728.1427      688.0839      -2416.2266     -1568.3508      1.008209       19.657462      19.657462      19.657462      7595.9545     -355.48215      103.46669      4579.3214      1442.4353    
       100   50             301.42236     -1728.1291      689.1363      -2417.2654     -1646.4219      1.0082024      19.657505      19.657505      19.657505      7596.0043     -1475.8313     -9.9646791      3698.4833      737.56245    
Loop time of 78.0275 on 1 procs for 100 steps with 768 atoms

Performance: 0.055 ns/day, 433.486 hours/ns, 1.282 timesteps/s, 984.269 atom-step/s
98.9% CPU use with 1 MPI tasks x 1 OpenMP threads

MPI task timing breakdown:
Section |  min time  |  avg time  |  max time  |%varavg| %total
---------------------------------------------------------------
Pair    | 77.417     | 77.417     | 77.417     |   0.0 | 99.22
Bond    | 2.8956e-05 | 2.8956e-05 | 2.8956e-05 |   0.0 |  0.00
Neigh   | 0.056451   | 0.056451   | 0.056451   |   0.0 |  0.07
Comm    | 0.0066908  | 0.0066908  | 0.0066908  |   0.0 |  0.01
Output  | 0.20267    | 0.20267    | 0.20267    |   0.0 |  0.26
Modify  | 0.34279    | 0.34279    | 0.34279    |   0.0 |  0.44
Other   |            | 0.001424   |            |       |  0.00

Nlocal:            768 ave         768 max         768 min
Histogram: 1 0 0 0 0 0 0 0 0 0
Nghost:           6629 ave        6629 max        6629 min
Histogram: 1 0 0 0 0 0 0 0 0 0
Neighs:         215859 ave      215859 max      215859 min
Histogram: 1 0 0 0 0 0 0 0 0 0

Total # of neighbors = 215859
Ave neighs/atom = 281.06641
Ave special neighs/atom = 2
Neighbor list builds = 10
Dangerous builds = 0

write_data      final.data nocoeff
System init for write_data ...
Generated 0 of 1 mixed pair_coeff terms from arithmetic mixing rule
WARNING: Bonds are defined but no bond style is set (src/force.cpp:198)
WARNING: Likewise 1-2 special neighbor interactions != 1.0 (src/force.cpp:200)
WARNING: Angles are defined but no angle style is set (src/force.cpp:203)
WARNING: Likewise 1-3 special neighbor interactions != 1.0 (src/force.cpp:205)
write_restart   restart.new
System init for write_restart ...
Generated 0 of 1 mixed pair_coeff terms from arithmetic mixing rule
WARNING: Bonds are defined but no bond style is set (src/force.cpp:198)
WARNING: Likewise 1-2 special neighbor interactions != 1.0 (src/force.cpp:200)
WARNING: Angles are defined but no angle style is set (src/force.cpp:203)
WARNING: Likewise 1-3 special neighbor interactions != 1.0 (src/force.cpp:205)

[MBX] Total MBX fix/pair time= 78.873951 seconds
[MBX] Timing Summary
[MBX] kernel                      tmin          tavg          tmax         count   %total
[MBX] -----------------------------------------------------------------------------------
[MBX] INIT                :       0.20665       0.20665       0.20665        11     0.26%
[MBX] UPDATE_XYZ          :      0.026905      0.026905      0.026905       101     0.03%
[MBX] ACCUMULATE_F        :      0.055597      0.055597      0.055597       505     0.07%
[MBX] E1B                 :       0.23633       0.23633       0.23633       101     0.30%
[MBX] E2B_LOCAL           :             0             0             0         0     0.00%
[MBX] E2B_GHOST           :        4.6424        4.6424        4.6424       101     5.89%
[MBX] E3B_LOCAL           :             0             0             0         0     0.00%
[MBX] E3B_GHOST           :        34.244        34.244        34.244       101    43.42%
[MBX] E4B_LOCAL           :             0             0             0         0     0.00%
[MBX] E4B_GHOST           :       0.18602       0.18602       0.18602       101     0.24%
[MBX] DISP                :        3.6396        3.6396        3.6396       101     4.61%
[MBX] DISP_PME            :        1.3769        1.3769        1.3769       101     1.75%
[MBX] BUCK                :        3.2189        3.2189        3.2189       202     4.08%
[MBX] ELE                 :        30.571        30.571        30.571       101    38.76%
[MBX] INIT_FULL           :             0             0             0         0     0.00%
[MBX] UPDATE_XYZ_FULL     :             0             0             0         0     0.00%
[MBX] ACCUMULATE_F_FULL   :             0             0             0         0     0.00%
[MBX] INIT_LOCAL          :      0.069541      0.069541      0.069541        11     0.09%
[MBX] UPDATE_XYZ_LOCAL    :      0.029231      0.029231      0.029231       101     0.04%
[MBX] ACCUMULATE_F_LOCAL  :      0.025707      0.025707      0.025707       404     0.03%


[MBX] Electrostatics Summary
[MBX] kernel                      tmin          tavg          tmax         count   %total
[MBX] -----------------------------------------------------------------------------------
[MBX] ELE_PERMDIP_REAL    :        2.6903        2.6903        2.6903       101     3.41%
[MBX] ELE_PERMDIP_PME     :       0.93048       0.93048       0.93048       101     1.18%
[MBX] ELE_DIPFIELD_REAL   :        9.3533        9.3533        9.3533      1144    11.86%
[MBX] ELE_DIPFIELD_PME    :        10.677        10.677        10.677      1144    13.54%
[MBX] ELE_GRAD_REAL       :        2.6006        2.6006        2.6006       101     3.30%
[MBX] ELE_GRAD_PME        :        3.1374        3.1374        3.1374       101     3.98%
[MBX] ELE_GRAD_FIN        :       0.04039       0.04039       0.04039       101     0.05%
[MBX] ELE_PME_SETUP       :    0.00018229    0.00018229    0.00018229      1346     0.00%
[MBX] ELE_PME_C           :        1.8515        1.8515        1.8515       202     2.35%
[MBX] ELE_PME_D           :        11.727        11.727        11.727      1245    14.87%
[MBX] ELE_PME_E           :        1.1354        1.1354        1.1354       101     1.44%
[MBX] DISP_PME_SETUP      :        0.1127        0.1127        0.1127       101     0.14%
[MBX] DISP_PME_E          :        1.2154        1.2154        1.2154       101     1.54%
[MBX] ELE_COMM_REVFOR     :      0.013736      0.013736      0.013736      1245     0.02%
[MBX] ELE_COMM_REVSET     :    0.00020417    0.00020417    0.00020417        11     0.00%
[MBX] ELE_COMM_REV        :    0.00061194    0.00061194    0.00061194      1234     0.00%
[MBX] ELE_COMM_FORSET     :    0.00093796    0.00093796    0.00093796        11     0.00%
[MBX] ELE_COMM_FOR        :     0.0090424     0.0090424     0.0090424      1234     0.01%
Total wall time: 0:01:18
