LAMMPS (2 Apr 2025)
variable number	equal 2
variable ofreq	equal 1000
variable efreq	equal 1000
variable T      equal 0.1
variable rhos   equal 0.5

units lj

dimension 3

newton on

boundary  p p p

atom_style hybrid bond ellipsoid oxdna
WARNING: Atom style hybrid defines both, per-type and per-atom masses; both must be set, but only per-atom masses will be used (../atom_vec_hybrid.cpp:132)
atom_modify sort 0 1.0

# Pair interactions require lists of neighbours to be calculated
neighbor 2.0 bin
neigh_modify every 1 delay 0 check yes

read_data data.duplex2
Reading data file ...
  orthogonal box = (-20 -20 -20) to (20 20 20)
  1 by 1 by 1 MPI processor grid
  reading atoms ...
  16 atoms
  reading velocities ...
  16 velocities
  scanning bonds ...
  1 = max bonds/atom
  16 ellipsoids
  orthogonal box = (-20 -20 -20) to (20 20 20)
  1 by 1 by 1 MPI processor grid
  reading bonds ...
  13 bonds
Finding 1-2 1-3 1-4 neighbors ...
  special bond factors lj:    0        0        0       
  special bond factors coul:  0        0        0       
     2 = max # of 1-2 neighbors
     2 = max # of 1-3 neighbors
     4 = max # of 1-4 neighbors
     6 = max # of special neighbors
  special bonds CPU = 0.000 seconds
  read_data CPU = 0.001 seconds

set atom * mass 3.1575
Setting atom values ...
  16 settings made for mass

group all type 1 4
16 atoms in group all

# oxRNA2 bond interactions - FENE backbone
bond_style oxrna2/fene
bond_coeff * 2.0 0.25 0.761070781051
special_bonds lj 0 1 1
Finding 1-2 1-3 1-4 neighbors ...
  special bond factors lj:    0        1        1       
  special bond factors coul:  0        0        0       
     2 = max # of 1-2 neighbors
     2 = max # of 1-3 neighbors
     4 = max # of 1-4 neighbors
     6 = max # of special neighbors
  special bonds CPU = 0.000 seconds

# oxRNA2 pair interactions
pair_style hybrid/overlay oxrna2/excv oxrna2/stk oxrna2/hbond oxrna2/xstk oxrna2/coaxstk oxrna2/dh
pair_coeff * * oxrna2/excv    2.0 0.7 0.675 2.0 0.515 0.5 2.0 0.33 0.32
pair_coeff * * oxrna2/stk     seqdep ${T} 1.40206 2.77 6.0 0.43 0.93 0.35 0.78 0.9 0 0.95 0.9 0 0.95 1.3 0 0.8 1.3 0 0.8 2.0 0.65 2.0 0.65
pair_coeff * * oxrna2/stk     seqdep 0.1 1.40206 2.77 6.0 0.43 0.93 0.35 0.78 0.9 0 0.95 0.9 0 0.95 1.3 0 0.8 1.3 0 0.8 2.0 0.65 2.0 0.65
pair_coeff * * oxrna2/hbond   seqdep 0.0 8.0 0.4 0.75 0.34 0.7 1.5 0 0.7 1.5 0 0.7 1.5 0 0.7 0.46 3.141592653589793 0.7 4.0 1.5707963267948966 0.45 4.0 1.5707963267948966 0.45
pair_coeff 1 4 oxrna2/hbond   seqdep 0.870439 8.0 0.4 0.75 0.34 0.7 1.5 0 0.7 1.5 0 0.7 1.5 0 0.7 0.46 3.141592653589793 0.7 4.0 1.5707963267948966 0.45 4.0 1.5707963267948966 0.45
pair_coeff 2 3 oxrna2/hbond   seqdep 0.870439 8.0 0.4 0.75 0.34 0.7 1.5 0 0.7 1.5 0 0.7 1.5 0 0.7 0.46 3.141592653589793 0.7 4.0 1.5707963267948966 0.45 4.0 1.5707963267948966 0.45
pair_coeff 3 4 oxrna2/hbond   seqdep 0.870439 8.0 0.4 0.75 0.34 0.7 1.5 0 0.7 1.5 0 0.7 1.5 0 0.7 0.46 3.141592653589793 0.7 4.0 1.5707963267948966 0.45 4.0 1.5707963267948966 0.45
pair_coeff * * oxrna2/xstk    59.9626 0.5 0.6 0.42 0.58 2.25 0.505 0.58 1.7 1.266 0.68 1.7 1.266 0.68 1.7 0.309 0.68 1.7 0.309 0.68
pair_coeff * * oxrna2/coaxstk 80 0.5 0.6 0.42 0.58 2.0 2.592 0.65 1.3 0.151 0.8 0.9 0.685 0.95 0.9 0.685 0.95 2.0 -0.65 2.0 -0.65
pair_coeff * * oxrna2/dh      ${T} ${rhos} 1.02455
pair_coeff * * oxrna2/dh      0.1 ${rhos} 1.02455
pair_coeff * * oxrna2/dh      0.1 0.5 1.02455

# NVE ensemble
fix 1 all nve/asphere
#fix 2 all langevin ${T} ${T} 2.5 457145 angmom 10

timestep 1e-5

#comm_style tiled
fix 3 all balance 1000 1.03 shift xyz 10 1.03
comm_modify cutoff 3.8

compute quat all property/atom quatw quati quatj quatk

compute erot all erotate/asphere
compute ekin all ke
compute epot all pe
variable erot equal c_erot
variable ekin equal c_ekin
variable epot equal c_epot
variable etot equal c_erot+c_ekin+c_epot
fix 5 all print ${efreq} "$(step)  ekin = ${ekin} |  erot = ${erot} | epot = ${epot} | etot = ${etot}" screen yes
fix 5 all print 1000 "$(step)  ekin = ${ekin} |  erot = ${erot} | epot = ${epot} | etot = ${etot}" screen yes

dump out all custom ${ofreq} out.${number}.lammpstrj id mol type x y z ix iy iz vx vy vz c_quat[1] c_quat[2] c_quat[3] c_quat[4] angmomx angmomy angmomz
dump out all custom 1000 out.${number}.lammpstrj id mol type x y z ix iy iz vx vy vz c_quat[1] c_quat[2] c_quat[3] c_quat[4] angmomx angmomy angmomz
dump out all custom 1000 out.2.lammpstrj id mol type x y z ix iy iz vx vy vz c_quat[1] c_quat[2] c_quat[3] c_quat[4] angmomx angmomy angmomz
dump_modify out sort id
dump_modify out format line "%d %d %d  %22.15le %22.15le %22.15le  %d %d %d  %22.15le %22.15le %22.15le  %22.15le %22.15le %22.15le %22.15le  %22.15le %22.15le %22.15le"

run 1000000
Generated 0 of 6 mixed pair_coeff terms from geometric mixing rule
Neighbor list info ...
  update: every = 1 steps, delay = 0 steps, check = yes
  max neighbors/atom: 2000, page size: 100000
  master list distance cutoff = 4.3014979
  ghost atom cutoff = 4.3014979
  binsize = 2.150749, bins = 19 19 19
  5 neighbor lists, perpetual/occasional/extra = 5 0 0
  (1) pair oxrna2/excv, perpetual
      attributes: half, newton on
      pair build: half/bin/newton
      stencil: half/bin/3d
      bin: standard
  (2) pair oxrna2/hbond, perpetual, copy from (1)
      attributes: half, newton on
      pair build: copy
      stencil: none
      bin: none
  (3) pair oxrna2/xstk, perpetual, copy from (1)
      attributes: half, newton on
      pair build: copy
      stencil: none
      bin: none
  (4) pair oxrna2/coaxstk, perpetual, copy from (1)
      attributes: half, newton on
      pair build: copy
      stencil: none
      bin: none
  (5) pair oxrna2/dh, perpetual, copy from (1)
      attributes: half, newton on
      pair build: copy
      stencil: none
      bin: none
WARNING: Communication cutoff adjusted to 4.301497916929199 (../comm.cpp:753)
0  ekin = 2.70475393009871 |  erot = 2.80172072918779 | epot = -11.1349465280231 | etot = -5.62847186873665
Per MPI rank memory allocation (min/avg/max) = 7.655 | 7.655 | 7.655 Mbytes
   Step          Temp          E_pair         E_mol          TotEng         Press          Volume    
         0   0.12021129    -0.7299505      0.034016337   -0.52688704     5.1214421e-05  64000        
1000  ekin = 2.74425239815418 |  erot = 2.79065458610894 | epot = -11.163378852689 | etot = -5.62847186842591
2000  ekin = 2.78841691867037 |  erot = 2.77992540099535 | epot = -11.1968141877249 | etot = -5.62847186805919
3000  ekin = 2.83938215410024 |  erot = 2.77185117591643 | epot = -11.2397051978033 | etot = -5.62847186778665
4000  ekin = 2.89876217830266 |  erot = 2.76816783884241 | epot = -11.2954018847921 | etot = -5.62847186764698
5000  ekin = 2.96742170720772 |  erot = 2.76919345829433 | epot = -11.3650870331989 | etot = -5.62847186769686
6000  ekin = 3.04563007371043 |  erot = 2.77376672268246 | epot = -11.4478686641706 | etot = -5.62847186777771
7000  ekin = 3.13407886898542 |  erot = 2.78065913591454 | epot = -11.5432098726294 | etot = -5.6284718677294
8000  ekin = 3.23400863287747 |  erot = 2.78938863934855 | epot = -11.651869139893 | etot = -5.62847186766703
9000  ekin = 3.34625998930262 |  erot = 2.80019523753782 | epot = -11.7749270943235 | etot = -5.62847186748307
10000  ekin = 3.47220350616338 |  erot = 2.81464622815281 | epot = -11.9153216015116 | etot = -5.62847186719546
   10000   0.14621807    -0.83009398     0.055104069   -0.56937076     4.8223733e-05  64000        
Loop time of 19.0918 on 1 procs for 1000000 steps with 16 atoms

Performance: 45254.941 tau/day, 52378.404 timesteps/s, 838.054 katom-step/s
99.4% CPU use with 1 MPI tasks x no OpenMP threads

MPI task timing breakdown:
Section |  min time  |  avg time  |  max time  |%varavg| %total
---------------------------------------------------------------
Pair    | 15.878     | 15.878     | 15.878     |   0.0 | 83.17
Bond    | 0.82999    | 0.82999    | 0.82999    |   0.0 |  4.35
Neigh   | 0.009773   | 0.009773   | 0.009773   |   0.0 |  0.05
Comm    | 0.29639    | 0.29639    | 0.29639    |   0.0 |  1.55
Output  | 0.16011    | 0.16011    | 0.16011    |   0.0 |  0.84
Modify  | 1.573      | 1.573      | 1.573      |   0.0 |  8.24
Other   |            | 0.3443     |            |       |  1.80

Nlocal:             16 ave          16 max          16 min
Histogram: 1 0 0 0 0 0 0 0 0 0
Nghost:              0 ave           0 max           0 min
Histogram: 1 0 0 0 0 0 0 0 0 0
Neighs:            106 ave         106 max         106 min
Histogram: 1 0 0 0 0 0 0 0 0 0

Total # of neighbors = 106
Ave neighs/atom = 6.625
Ave special neighs/atom = 3.75
Neighbor list builds = 1000
Dangerous builds = 0

write_data last_config.${number}.* nocoeff
write_data last_config.2.* nocoeff
System init for write_data ...
Generated 0 of 6 mixed pair_coeff terms from geometric mixing rule
#write_restart last_config.${number}.*
Total wall time: 0:00:19
