LAMMPS (2 Apr 2025)
variable number	equal 2
variable ofreq	equal 1000
variable efreq	equal 1000
variable T      equal 0.1
variable rhos   equal 0.5

units lj

dimension 3

newton on

boundary  p p p

atom_style hybrid bond ellipsoid oxdna
WARNING: Atom style hybrid defines both, per-type and per-atom masses; both must be set, but only per-atom masses will be used (../atom_vec_hybrid.cpp:132)
atom_modify sort 0 1.0

# Pair interactions require lists of neighbours to be calculated
neighbor 2.0 bin
neigh_modify every 1 delay 0 check yes

read_data data.duplex2
Reading data file ...
  orthogonal box = (-20 -20 -20) to (20 20 20)
  1 by 1 by 1 MPI processor grid
  reading atoms ...
  16 atoms
  reading velocities ...
  16 velocities
  scanning bonds ...
  1 = max bonds/atom
  16 ellipsoids
  orthogonal box = (-20 -20 -20) to (20 20 20)
  1 by 1 by 1 MPI processor grid
  reading bonds ...
  13 bonds
Finding 1-2 1-3 1-4 neighbors ...
  special bond factors lj:    0        0        0       
  special bond factors coul:  0        0        0       
     2 = max # of 1-2 neighbors
     2 = max # of 1-3 neighbors
     4 = max # of 1-4 neighbors
     6 = max # of special neighbors
  special bonds CPU = 0.000 seconds
  read_data CPU = 0.001 seconds

set atom * mass 3.1575
Setting atom values ...
  16 settings made for mass

group all type 1 4
16 atoms in group all

# oxRNA2 bond interactions - FENE backbone
bond_style oxrna2/fene
bond_coeff * 2.0 0.25 0.761070781051
special_bonds lj 0 1 1
Finding 1-2 1-3 1-4 neighbors ...
  special bond factors lj:    0        1        1       
  special bond factors coul:  0        0        0       
     2 = max # of 1-2 neighbors
     2 = max # of 1-3 neighbors
     4 = max # of 1-4 neighbors
     6 = max # of special neighbors
  special bonds CPU = 0.000 seconds

# oxRNA2 pair interactions
pair_style hybrid/overlay oxrna2/excv oxrna2/stk oxrna2/hbond oxrna2/xstk oxrna2/coaxstk oxrna2/dh
pair_coeff * * oxrna2/excv    2.0 0.7 0.675 2.0 0.515 0.5 2.0 0.33 0.32
pair_coeff * * oxrna2/stk     seqdep ${T} 1.40206 2.77 6.0 0.43 0.93 0.35 0.78 0.9 0 0.95 0.9 0 0.95 1.3 0 0.8 1.3 0 0.8 2.0 0.65 2.0 0.65
pair_coeff * * oxrna2/stk     seqdep 0.1 1.40206 2.77 6.0 0.43 0.93 0.35 0.78 0.9 0 0.95 0.9 0 0.95 1.3 0 0.8 1.3 0 0.8 2.0 0.65 2.0 0.65
pair_coeff * * oxrna2/hbond   seqdep 0.0 8.0 0.4 0.75 0.34 0.7 1.5 0 0.7 1.5 0 0.7 1.5 0 0.7 0.46 3.141592653589793 0.7 4.0 1.5707963267948966 0.45 4.0 1.5707963267948966 0.45
pair_coeff 1 4 oxrna2/hbond   seqdep 0.870439 8.0 0.4 0.75 0.34 0.7 1.5 0 0.7 1.5 0 0.7 1.5 0 0.7 0.46 3.141592653589793 0.7 4.0 1.5707963267948966 0.45 4.0 1.5707963267948966 0.45
pair_coeff 2 3 oxrna2/hbond   seqdep 0.870439 8.0 0.4 0.75 0.34 0.7 1.5 0 0.7 1.5 0 0.7 1.5 0 0.7 0.46 3.141592653589793 0.7 4.0 1.5707963267948966 0.45 4.0 1.5707963267948966 0.45
pair_coeff 3 4 oxrna2/hbond   seqdep 0.870439 8.0 0.4 0.75 0.34 0.7 1.5 0 0.7 1.5 0 0.7 1.5 0 0.7 0.46 3.141592653589793 0.7 4.0 1.5707963267948966 0.45 4.0 1.5707963267948966 0.45
pair_coeff * * oxrna2/xstk    59.9626 0.5 0.6 0.42 0.58 2.25 0.505 0.58 1.7 1.266 0.68 1.7 1.266 0.68 1.7 0.309 0.68 1.7 0.309 0.68
pair_coeff * * oxrna2/coaxstk 80 0.5 0.6 0.42 0.58 2.0 2.592 0.65 1.3 0.151 0.8 0.9 0.685 0.95 0.9 0.685 0.95 2.0 -0.65 2.0 -0.65
pair_coeff * * oxrna2/dh      ${T} ${rhos} 1.02455
pair_coeff * * oxrna2/dh      0.1 ${rhos} 1.02455
pair_coeff * * oxrna2/dh      0.1 0.5 1.02455

# NVE ensemble
fix 1 all nve/asphere
#fix 2 all langevin ${T} ${T} 2.5 457145 angmom 10

timestep 1e-5

#comm_style tiled
fix 3 all balance 1000 1.03 shift xyz 10 1.03
comm_modify cutoff 3.8

compute quat all property/atom quatw quati quatj quatk

compute erot all erotate/asphere
compute ekin all ke
compute epot all pe
variable erot equal c_erot
variable ekin equal c_ekin
variable epot equal c_epot
variable etot equal c_erot+c_ekin+c_epot
fix 5 all print ${efreq} "$(step)  ekin = ${ekin} |  erot = ${erot} | epot = ${epot} | etot = ${etot}" screen yes
fix 5 all print 1000 "$(step)  ekin = ${ekin} |  erot = ${erot} | epot = ${epot} | etot = ${etot}" screen yes

dump out all custom ${ofreq} out.${number}.lammpstrj id mol type x y z ix iy iz vx vy vz c_quat[1] c_quat[2] c_quat[3] c_quat[4] angmomx angmomy angmomz
dump out all custom 1000 out.${number}.lammpstrj id mol type x y z ix iy iz vx vy vz c_quat[1] c_quat[2] c_quat[3] c_quat[4] angmomx angmomy angmomz
dump out all custom 1000 out.2.lammpstrj id mol type x y z ix iy iz vx vy vz c_quat[1] c_quat[2] c_quat[3] c_quat[4] angmomx angmomy angmomz
dump_modify out sort id
dump_modify out format line "%d %d %d  %22.15le %22.15le %22.15le  %d %d %d  %22.15le %22.15le %22.15le  %22.15le %22.15le %22.15le %22.15le  %22.15le %22.15le %22.15le"

run 1000000
Generated 0 of 6 mixed pair_coeff terms from geometric mixing rule
Neighbor list info ...
  update: every = 1 steps, delay = 0 steps, check = yes
  max neighbors/atom: 2000, page size: 100000
  master list distance cutoff = 4.3014979
  ghost atom cutoff = 4.3014979
  binsize = 2.150749, bins = 19 19 19
  5 neighbor lists, perpetual/occasional/extra = 5 0 0
  (1) pair oxrna2/excv, perpetual
      attributes: half, newton on
      pair build: half/bin/newton
      stencil: half/bin/3d
      bin: standard
  (2) pair oxrna2/hbond, perpetual, copy from (1)
      attributes: half, newton on
      pair build: copy
      stencil: none
      bin: none
  (3) pair oxrna2/xstk, perpetual, copy from (1)
      attributes: half, newton on
      pair build: copy
      stencil: none
      bin: none
  (4) pair oxrna2/coaxstk, perpetual, copy from (1)
      attributes: half, newton on
      pair build: copy
      stencil: none
      bin: none
  (5) pair oxrna2/dh, perpetual, copy from (1)
      attributes: half, newton on
      pair build: copy
      stencil: none
      bin: none
WARNING: Communication cutoff adjusted to 4.301497916929199 (../comm.cpp:753)
0  ekin = 2.70475393009871 |  erot = 2.80172072918779 | epot = -11.1349465280231 | etot = -5.62847186873665
Per MPI rank memory allocation (min/avg/max) = 7.655 | 7.655 | 7.655 Mbytes
   Step          Temp          E_pair         E_mol          TotEng         Press          Volume    
         0   0.12021129    -0.7299505      0.034016337   -0.52688704     5.1214421e-05  64000        
1000  ekin = 2.74425239815418 |  erot = 2.79065458610894 | epot = -11.163378852689 | etot = -5.62847186842591
2000  ekin = 2.78841691867037 |  erot = 2.77992540099535 | epot = -11.1968141877249 | etot = -5.62847186805919
3000  ekin = 2.83938215410024 |  erot = 2.77185117591643 | epot = -11.2397051978033 | etot = -5.62847186778665
4000  ekin = 2.89876217830266 |  erot = 2.76816783884241 | epot = -11.2954018847921 | etot = -5.62847186764698
5000  ekin = 2.96742170720772 |  erot = 2.76919345829433 | epot = -11.3650870331989 | etot = -5.62847186769686
6000  ekin = 3.04563007371043 |  erot = 2.77376672268246 | epot = -11.4478686641706 | etot = -5.62847186777771
7000  ekin = 3.13407886898542 |  erot = 2.78065913591454 | epot = -11.5432098726294 | etot = -5.6284718677294
8000  ekin = 3.23400863287747 |  erot = 2.78938863934855 | epot = -11.651869139893 | etot = -5.62847186766703
9000  ekin = 3.34625998930262 |  erot = 2.80019523753782 | epot = -11.7749270943235 | etot = -5.62847186748307
10000  ekin = 3.47220350616338 |  erot = 2.81464622815281 | epot = -11.9153216015116 | etot = -5.62847186719546
11000  ekin = 3.61341090096022 |  erot = 2.83541090219848 | epot = -12.0772936703879 | etot = -5.62847186722918
12000  ekin = 3.76971728921065 |  erot = 2.8651661044909 | epot = -12.2633552607299 | etot = -5.62847186702834
13000  ekin = 3.9410557771447 |  erot = 2.90597306806356 | epot = -12.4755007121565 | etot = -5.62847186694825
14000  ekin = 4.1273074489676 |  erot = 2.95952862137382 | epot = -12.7153079373022 | etot = -5.62847186696082
15000  ekin = 4.32776706381554 |  erot = 3.02701108512253 | epot = -12.9832500158853 | etot = -5.62847186694727
16000  ekin = 4.54139695680688 |  erot = 3.10924468066181 | epot = -13.2791135046205 | etot = -5.62847186715179
17000  ekin = 4.76575661763827 |  erot = 3.20604355373095 | epot = -13.6002720389201 | etot = -5.62847186755085
18000  ekin = 4.99700491214688 |  erot = 3.31611869568271 | epot = -13.9415954758898 | etot = -5.62847186806023
19000  ekin = 5.23048108112194 |  erot = 3.43700077146765 | epot = -14.2959537213472 | etot = -5.62847186875758
20000  ekin = 5.46074742513061 |  erot = 3.56463156086408 | epot = -14.6538508556013 | etot = -5.62847186960662
21000  ekin = 5.68087058007138 |  erot = 3.69256776681719 | epot = -15.001910217923 | etot = -5.62847187103444
22000  ekin = 5.88327619983881 |  erot = 3.81252322503561 | epot = -15.3242712967755 | etot = -5.62847187190106
23000  ekin = 6.06249979951993 |  erot = 3.91720950057675 | epot = -15.6081811728147 | etot = -5.62847187271799
24000  ekin = 6.21449712377439 |  erot = 4.00104081543185 | epot = -15.8440098121104 | etot = -5.6284718729042
25000  ekin = 6.33853277809257 |  erot = 4.06184542619885 | epot = -16.0288500769828 | etot = -5.62847187269141
26000  ekin = 6.43627737187014 |  erot = 4.10076278430847 | epot = -16.1655120283939 | etot = -5.62847187221524
27000  ekin = 6.5109244797203 |  erot = 4.12134483746812 | epot = -16.2607411888241 | etot = -5.62847187163567
28000  ekin = 6.56622100976688 |  erot = 4.12827111510819 | epot = -16.3229639959506 | etot = -5.62847187107556
29000  ekin = 6.605873400024 |  erot = 4.12622173833902 | epot = -16.3605670089492 | etot = -5.6284718705862
30000  ekin = 6.63335580501837 |  erot = 4.11921545444655 | epot = -16.3810431296795 | etot = -5.62847187021455
31000  ekin = 6.65211888589281 |  erot = 4.10999678317531 | epot = -16.3905875389835 | etot = -5.6284718699154
32000  ekin = 6.66584763664886 |  erot = 4.10024297795101 | epot = -16.3945624842074 | etot = -5.6284718696075
33000  ekin = 6.67923227191042 |  erot = 4.09129207413365 | epot = -16.3989962152632 | etot = -5.62847186921911
34000  ekin = 6.69756137216845 |  erot = 4.08414768607662 | epot = -16.4101809271348 | etot = -5.62847186888974
35000  ekin = 6.72589628312096 |  erot = 4.07950228497945 | epot = -16.4338704366879 | etot = -5.62847186858749
36000  ekin = 6.76908557113728 |  erot = 4.07778615492105 | epot = -16.4753435944363 | etot = -5.62847186837796
37000  ekin = 6.83097506213416 |  erot = 4.07899014040659 | epot = -16.5384370708784 | etot = -5.62847186833762
38000  ekin = 6.91354703253184 |  erot = 4.08242106390411 | epot = -16.6244399649598 | etot = -5.62847186852381
39000  ekin = 7.01626065739845 |  erot = 4.08652171942779 | epot = -16.7312542457772 | etot = -5.62847186895098
40000  ekin = 7.1357379225834 |  erot = 4.0888440454 | epot = -16.8530538375759 | etot = -5.62847186959254
41000  ekin = 7.26614194134524 |  erot = 4.08627042537766 | epot = -16.9808842370345 | etot = -5.62847187031156
42000  ekin = 7.40051154120597 |  erot = 4.07546023443105 | epot = -17.1044436466278 | etot = -5.62847187099081
43000  ekin = 7.53157437143697 |  erot = 4.05344655359647 | epot = -17.213492796585 | etot = -5.62847187155155
44000  ekin = 7.65268317567651 |  erot = 4.01819177227246 | epot = -17.2993468198234 | etot = -5.62847187187444
45000  ekin = 7.75845343306893 |  erot = 3.96898510895791 | epot = -17.3559104142066 | etot = -5.62847187217981
46000  ekin = 7.84504377034644 |  erot = 3.90454903064815 | epot = -17.3780646733318 | etot = -5.62847187233722
47000  ekin = 7.91002390820632 |  erot = 3.8247859655522 | epot = -17.3632817459108 | etot = -5.62847187215229
48000  ekin = 7.95195705456508 |  erot = 3.73154439390029 | epot = -17.3119733204129 | etot = -5.62847187194756
49000  ekin = 7.97001825706868 |  erot = 3.62752007295069 | epot = -17.2260102016186 | etot = -5.62847187159924
50000  ekin = 7.96375756700431 |  erot = 3.51726958365129 | epot = -17.1094990215453 | etot = -5.6284718708897
51000  ekin = 7.9328076130044 |  erot = 3.40827188497853 | epot = -16.9695513688031 | etot = -5.62847187082019
52000  ekin = 7.87656811744192 |  erot = 3.30207418532547 | epot = -16.8071141735587 | etot = -5.6284718707913
53000  ekin = 7.79531012541907 |  erot = 3.19839984815418 | epot = -16.6221818441148 | etot = -5.62847187054156
54000  ekin = 7.68952609570334 |  erot = 3.0998018548182 | epot = -16.4177998208246 | etot = -5.62847187030308
55000  ekin = 7.55966222141095 |  erot = 3.0089742698953 | epot = -16.1971083614501 | etot = -5.62847187014381
56000  ekin = 7.40594124507998 |  erot = 2.92802865182249 | epot = -15.9624417669773 | etot = -5.62847187007485
57000  ekin = 7.22816598141988 |  erot = 2.85836584281779 | epot = -15.715003694348 | etot = -5.62847187011035
58000  ekin = 7.02573051397602 |  erot = 2.80066522322019 | epot = -15.4548676074194 | etot = -5.62847187022324
59000  ekin = 6.80455077165116 |  erot = 2.75651944712013 | epot = -15.1895420860965 | etot = -5.62847186732525
60000  ekin = 6.57760251691509 |  erot = 2.72731501678717 | epot = -14.9333893991693 | etot = -5.62847186546702
61000  ekin = 5.99884053190018 |  erot = 2.65010269791683 | epot = -14.2774150331152 | etot = -5.62847180329824
62000  ekin = 5.8221795865223 |  erot = 2.65058478195167 | epot = -14.1012361774605 | etot = -5.62847180898655
63000  ekin = 6.00993174210268 |  erot = 2.7114348346641 | epot = -14.3498384845185 | etot = -5.62847190775176
64000  ekin = 5.85096985050387 |  erot = 2.71173917624727 | epot = -14.1911809366076 | etot = -5.62847190985647
65000  ekin = 5.67959801442753 |  erot = 2.70731630130167 | epot = -14.0153862253965 | etot = -5.62847190966729
66000  ekin = 5.49812382731724 |  erot = 2.69646895132519 | epot = -13.8230646880633 | etot = -5.62847190942087
67000  ekin = 5.31011188753164 |  erot = 2.6790133117242 | epot = -13.6175971082585 | etot = -5.62847190900266
68000  ekin = 5.11964229582605 |  erot = 2.6562219727344 | epot = -13.4043361770529 | etot = -5.62847190849248
69000  ekin = 4.93067975207868 |  erot = 2.63014135225735 | epot = -13.1892930124932 | etot = -5.62847190815713
70000  ekin = 4.74697386617499 |  erot = 2.60347312706349 | epot = -12.9789189008752 | etot = -5.62847190763672
71000  ekin = 4.57222133259581 |  erot = 2.57971589798974 | epot = -12.7804091377445 | etot = -5.62847190715897
72000  ekin = 4.40959648507795 |  erot = 2.56228295922535 | epot = -12.6003513510617 | etot = -5.62847190675844
73000  ekin = 4.26170009573916 |  erot = 2.55406076080153 | epot = -12.4442327629951 | etot = -5.62847190645437
74000  ekin = 4.1305294979083 |  erot = 2.55713155841207 | epot = -12.3161329625867 | etot = -5.62847190626638
75000  ekin = 4.01588192828879 |  erot = 2.56608801434085 | epot = -12.2104419139896 | etot = -5.62847197135995
76000  ekin = 3.95904625854816 |  erot = 2.44184942386023 | epot = -12.0293675901713 | etot = -5.62847190776289
77000  ekin = 4.02755960266379 |  erot = 2.46007159499072 | epot = -12.1161031098039 | etot = -5.62847191214944
78000  ekin = 3.9878543994383 |  erot = 2.49596945534625 | epot = -12.1122957670966 | etot = -5.62847191231209
79000  ekin = 3.96575767721441 |  erot = 2.54200842335474 | epot = -12.1362380131155 | etot = -5.62847191254637
80000  ekin = 3.95961954869567 |  erot = 2.59604589435617 | epot = -12.184137355885 | etot = -5.62847191283321
81000  ekin = 3.96734100032354 |  erot = 2.65577062232374 | epot = -12.2515835357819 | etot = -5.62847191313459
82000  ekin = 3.98651997822132 |  erot = 2.71892569307107 | epot = -12.3339175847232 | etot = -5.62847191343078
83000  ekin = 4.01459300302753 |  erot = 2.78352190390223 | epot = -12.4265868206362 | etot = -5.62847191370641
84000  ekin = 4.0495621060856 |  erot = 2.84796629664446 | epot = -12.5260003165346 | etot = -5.62847191380458
85000  ekin = 4.09049341026875 |  erot = 2.9110436538113 | epot = -12.6300089781182 | etot = -5.62847191403814
86000  ekin = 4.13484812560057 |  erot = 2.97201165419121 | epot = -12.7353316940206 | etot = -5.62847191422882
87000  ekin = 4.18003829184661 |  erot = 3.03078479878319 | epot = -12.8392950049956 | etot = -5.62847191436579
88000  ekin = 4.22360704724746 |  erot = 3.08796574000357 | epot = -12.9400447017005 | etot = -5.62847191444942
89000  ekin = 4.26326024607336 |  erot = 3.14481288279521 | epot = -13.0365450433362 | etot = -5.62847191446762
90000  ekin = 4.29588111790628 |  erot = 3.2034171377705 | epot = -13.1277701703303 | etot = -5.62847191465351
91000  ekin = 4.31697784577823 |  erot = 3.26736040230194 | epot = -13.212810162646 | etot = -5.62847191456581
92000  ekin = 4.32507837347587 |  erot = 3.33931601944599 | epot = -13.2928663075905 | etot = -5.62847191466859
93000  ekin = 4.31872212432202 |  erot = 3.42036541916818 | epot = -13.3675594581782 | etot = -5.62847191468797
94000  ekin = 4.29660005793297 |  erot = 3.51205694754446 | epot = -13.4371289201544 | etot = -5.62847191467693
95000  ekin = 4.25789021838846 |  erot = 3.61606475666887 | epot = -13.5024268896673 | etot = -5.62847191461002
96000  ekin = 4.20253661926503 |  erot = 3.73412422729709 | epot = -13.5651327610316 | etot = -5.62847191446947
97000  ekin = 4.13146529060018 |  erot = 3.86803037439348 | epot = -13.6279675793422 | etot = -5.62847191434852
98000  ekin = 4.04669071975355 |  erot = 4.01885670334783 | epot = -13.6940193371955 | etot = -5.62847191409417
99000  ekin = 3.95128630061898 |  erot = 4.18772840013519 | epot = -13.7674866145629 | etot = -5.62847191380868
100000  ekin = 3.84921784883062 |  erot = 4.37558821791339 | epot = -13.8532779802877 | etot = -5.62847191354374
101000  ekin = 3.7450122392329 |  erot = 4.58258429231848 | epot = -13.9560684449149 | etot = -5.62847191336354
102000  ekin = 3.64330024870559 |  erot = 4.80764134110179 | epot = -14.0794135031377 | etot = -5.62847191333034
103000  ekin = 3.54831662006261 |  erot = 5.04811575607611 | epot = -14.2249042896179 | etot = -5.62847191347913
104000  ekin = 3.46349772064916 |  erot = 5.2996082035856 | epot = -14.3915778382041 | etot = -5.62847191396931
105000  ekin = 3.39136254536247 |  erot = 5.55507704360099 | epot = -14.5749115034255 | etot = -5.62847191446202
106000  ekin = 3.33356403744386 |  erot = 5.80718759325043 | epot = -14.7692235454844 | etot = -5.62847191479006
107000  ekin = 3.2920986135368 |  erot = 6.04906687386859 | epot = -14.9696374027458 | etot = -5.62847191534042
108000  ekin = 3.26748487341094 |  erot = 6.27418243659817 | epot = -15.1701392258634 | etot = -5.62847191585427
109000  ekin = 3.25930506886596 |  erot = 6.47585417244433 | epot = -15.3636311580696 | etot = -5.62847191675931
110000  ekin = 3.26568272829098 |  erot = 6.64602097208043 | epot = -15.540175617699 | etot = -5.62847191732756
111000  ekin = 3.28520059172626 |  erot = 6.77857539600454 | epot = -15.6922479055273 | etot = -5.62847191779649
112000  ekin = 3.31659315707447 |  erot = 6.86862760564092 | epot = -15.8136926809255 | etot = -5.62847191821014
113000  ekin = 3.35860144230949 |  erot = 6.91335224014964 | epot = -15.900425600658 | etot = -5.62847191819887
114000  ekin = 3.41073468124697 |  erot = 6.91406610981338 | epot = -15.9532727088346 | etot = -5.62847191777421
115000  ekin = 3.47381531534298 |  erot = 6.87643065686524 | epot = -15.978717889408 | etot = -5.62847191719982
116000  ekin = 3.54886437558792 |  erot = 6.80711139529228 | epot = -15.9844476879584 | etot = -5.62847191707818
117000  ekin = 3.63467409204966 |  erot = 6.71320827683685 | epot = -15.9763542854633 | etot = -5.62847191657683
118000  ekin = 3.72815555523574 |  erot = 6.60276001485653 | epot = -15.9593874864268 | etot = -5.62847191633449
119000  ekin = 3.82420980363928 |  erot = 6.48288858478335 | epot = -15.9355703049694 | etot = -5.62847191654672
120000  ekin = 3.9179774835722 |  erot = 6.35662792089888 | epot = -15.9030773212278 | etot = -5.62847191675674
121000  ekin = 4.00591742044031 |  erot = 6.2246899302708 | epot = -15.8590792676428 | etot = -5.62847191693164
122000  ekin = 4.0855027032236 |  erot = 6.08676575288873 | epot = -15.8007403736367 | etot = -5.62847191752433
123000  ekin = 4.15433540908364 |  erot = 5.9407157229031 | epot = -15.723523049464 | etot = -5.62847191747728
124000  ekin = 4.21272085203589 |  erot = 5.7859073386939 | epot = -15.6271001078546 | etot = -5.62847191712477
125000  ekin = 4.26325970413171 |  erot = 5.62467373686517 | epot = -15.5164053575227 | etot = -5.62847191652581
126000  ekin = 4.30880597980496 |  erot = 5.46113290467054 | epot = -15.3984108007445 | etot = -5.62847191626896
127000  ekin = 4.3513631311102 |  erot = 5.29960307371295 | epot = -15.2794381205807 | etot = -5.62847191575754
128000  ekin = 4.39391383900504 |  erot = 5.1438626910661 | epot = -15.1662484454469 | etot = -5.62847191537572
129000  ekin = 4.43858036063664 |  erot = 4.99693296064681 | epot = -15.0639852363962 | etot = -5.62847191511278
130000  ekin = 4.48619887382551 |  erot = 4.86092637377888 | epot = -14.9755971627246 | etot = -5.62847191512022
131000  ekin = 4.53629967746136 |  erot = 4.73552279955469 | epot = -14.9002943921705 | etot = -5.62847191515448
132000  ekin = 4.58794392436788 |  erot = 4.62012473201891 | epot = -14.8365405715615 | etot = -5.62847191517469
133000  ekin = 4.63977927970902 |  erot = 4.51475331813971 | epot = -14.7830045130171 | etot = -5.62847191516834
134000  ekin = 4.69096227444678 |  erot = 4.41936571520129 | epot = -14.7387999047829 | etot = -5.62847191513483
135000  ekin = 4.74083332632101 |  erot = 4.33399770983653 | epot = -14.7033029512384 | etot = -5.62847191508091
136000  ekin = 4.78901374177433 |  erot = 4.25873574864823 | epot = -14.6762214054338 | etot = -5.62847191501128
137000  ekin = 4.83519033966301 |  erot = 4.19345584709313 | epot = -14.6571181018645 | etot = -5.62847191510838
138000  ekin = 4.87857190019276 |  erot = 4.13759960010497 | epot = -14.6446434153654 | etot = -5.62847191506767
139000  ekin = 4.91933904268651 |  erot = 4.09041841408154 | epot = -14.6382293717812 | etot = -5.6284719150131
140000  ekin = 4.95802132610721 |  erot = 4.05108530565771 | epot = -14.6375785467333 | etot = -5.62847191496842
141000  ekin = 4.99519923255352 |  erot = 4.01864210163627 | epot = -14.6423132491268 | etot = -5.62847191493701
142000  ekin = 5.03134031865386 |  erot = 3.99210960072453 | epot = -14.6519218343065 | etot = -5.62847191492814
143000  ekin = 5.06663282814604 |  erot = 3.9705610087224 | epot = -14.6656657518147 | etot = -5.62847191494626
144000  ekin = 5.10088003253964 |  erot = 3.95318385936647 | epot = -14.6825358068965 | etot = -5.62847191499035
145000  ekin = 5.13347728619405 |  erot = 3.93933318432654 | epot = -14.7012823855752 | etot = -5.62847191505466
146000  ekin = 5.16346418937021 |  erot = 3.92856945833576 | epot = -14.7205055628367 | etot = -5.62847191513071
147000  ekin = 5.18962884502094 |  erot = 3.92067778970115 | epot = -14.7387785499315 | etot = -5.62847191520937
148000  ekin = 5.21063630105014 |  erot = 3.91566839447799 | epot = -14.7547766108105 | etot = -5.62847191528238
149000  ekin = 5.22515818277281 |  erot = 3.9137620338496 | epot = -14.7673921319652 | etot = -5.62847191534276
150000  ekin = 5.23199081771405 |  erot = 3.9153675691888 | epot = -14.7758303022873 | etot = -5.62847191538442
151000  ekin = 5.23025857434855 |  erot = 3.92102977399579 | epot = -14.7797602637295 | etot = -5.62847191538521
152000  ekin = 5.21970456277589 |  erot = 3.93136599417336 | epot = -14.779542472319 | etot = -5.62847191536975
153000  ekin = 5.20020715643899 |  erot = 3.94729684643036 | epot = -14.7759759181574 | etot = -5.62847191528808
154000  ekin = 5.17219962280854 |  erot = 3.96989664945451 | epot = -14.77056818751 | etot = -5.62847191524693
155000  ekin = 5.13597939415153 |  erot = 4.00025654377922 | epot = -14.7647078530829 | etot = -5.62847191515211
156000  ekin = 5.0922745653875 |  erot = 4.03969792967906 | epot = -14.7604444100928 | etot = -5.6284719150262
157000  ekin = 5.0421437465576 |  erot = 4.08965648366418 | epot = -14.7602721451217 | etot = -5.62847191489995
158000  ekin = 4.98664076893658 |  erot = 4.15175637520673 | epot = -14.7668690589136 | etot = -5.6284719147703
159000  ekin = 4.9265670822631 |  erot = 4.22693785976745 | epot = -14.7819768568012 | etot = -5.62847191477066
160000  ekin = 4.86235166664922 |  erot = 4.31524574981797 | epot = -14.8060693313526 | etot = -5.6284719148854
161000  ekin = 4.7934074440835 |  erot = 4.4163419215573 | epot = -14.8382212806373 | etot = -5.62847191499648
162000  ekin = 4.71931679137128 |  erot = 4.52911647420329 | epot = -14.8769051807423 | etot = -5.62847191516769
163000  ekin = 4.63965178837852 |  erot = 4.65170333188742 | epot = -14.919827035611 | etot = -5.62847191534502
164000  ekin = 4.55406399624256 |  erot = 4.7816630174034 | epot = -14.9641989292958 | etot = -5.62847191564986
165000  ekin = 4.46213996067384 |  erot = 4.91530272158889 | epot = -15.0059145982041 | etot = -5.62847191594136
166000  ekin = 4.36388109534802 |  erot = 5.04805357548568 | epot = -15.0404065870399 | etot = -5.62847191620623
167000  ekin = 4.25995046842376 |  erot = 5.17511068522231 | epot = -15.0635330700687 | etot = -5.62847191642258
168000  ekin = 4.15154354282076 |  erot = 5.29182746831869 | epot = -15.0718429277113 | etot = -5.6284719165719
169000  ekin = 4.0402608472745 |  erot = 5.39411747728049 | epot = -15.0628502412093 | etot = -5.62847191665435
170000  ekin = 3.92797723838312 |  erot = 5.47890367159865 | epot = -15.0353528265935 | etot = -5.6284719166117
171000  ekin = 3.81680551395817 |  erot = 5.54460219961097 | epot = -14.9898796300187 | etot = -5.62847191644956
172000  ekin = 3.70912194360888 |  erot = 5.5911987727265 | epot = -14.9287926324948 | etot = -5.62847191615938
173000  ekin = 3.60767008610005 |  erot = 5.62020496675977 | epot = -14.8563469686161 | etot = -5.62847191575626
174000  ekin = 3.51593123142725 |  erot = 5.63484613588059 | epot = -14.7792492818559 | etot = -5.62847191454806
175000  ekin = 3.43946966413918 |  erot = 5.64148825119084 | epot = -14.7094298295816 | etot = -5.62847191425163
176000  ekin = 3.38149964340067 |  erot = 5.64304584979602 | epot = -14.6530174072224 | etot = -5.62847191402571
177000  ekin = 3.34426304280379 |  erot = 5.64075589500554 | epot = -14.6134908517396 | etot = -5.62847191393028
178000  ekin = 3.32907821318175 |  erot = 5.63429171925347 | epot = -14.591841846621 | etot = -5.62847191418583
179000  ekin = 3.33553286829389 |  erot = 5.62088708741524 | epot = -14.5848918700478 | etot = -5.62847191433864
180000  ekin = 3.36333384277279 |  erot = 5.59827011329215 | epot = -14.5900758706831 | etot = -5.62847191461817
181000  ekin = 3.41118322744713 |  erot = 5.56369949232868 | epot = -14.6033546347483 | etot = -5.62847191497248
182000  ekin = 3.47666657813935 |  erot = 5.51442909119409 | epot = -14.6195675846752 | etot = -5.62847191534181
183000  ekin = 3.55646627297123 |  erot = 5.44847615754779 | epot = -14.6334143461255 | etot = -5.62847191560645
184000  ekin = 3.64671110623896 |  erot = 5.36528131962534 | epot = -14.6404643416903 | etot = -5.62847191582597
185000  ekin = 3.74294243854238 |  erot = 5.26596644090158 | epot = -14.6373807953575 | etot = -5.62847191591358
186000  ekin = 3.84064021177409 |  erot = 5.15359326678968 | epot = -14.6227053944201 | etot = -5.62847191585635
187000  ekin = 3.93563840595002 |  erot = 5.03296537332471 | epot = -14.5970756949483 | etot = -5.62847191567361
188000  ekin = 4.02444308409288 |  erot = 4.91004205202643 | epot = -14.5629570515405 | etot = -5.62847191542118
189000  ekin = 4.10437481570299 |  erot = 4.79101157925998 | epot = -14.5238583101454 | etot = -5.62847191518238
190000  ekin = 4.17348832619981 |  erot = 4.68117061833078 | epot = -14.4831308595838 | etot = -5.62847191505321
191000  ekin = 4.23028845394429 |  erot = 4.58386192798824 | epot = -14.4426222970227 | etot = -5.62847191509014
192000  ekin = 4.27358054060639 |  erot = 4.49984530057533 | epot = -14.4018977564793 | etot = -5.6284719152976
193000  ekin = 4.24592911993961 |  erot = 4.46741799187516 | epot = -14.3418190226911 | etot = -5.62847191087632
194000  ekin = 4.19994174150941 |  erot = 4.47173701960596 | epot = -14.3001506793666 | etot = -5.62847191825124
195000  ekin = 4.1998113952218 |  erot = 4.40365513590294 | epot = -14.2319384423483 | etot = -5.62847191122357
196000  ekin = 4.18831859749942 |  erot = 4.3282137840848 | epot = -14.1450042928941 | etot = -5.62847191130989
197000  ekin = 4.1644552260048 |  erot = 4.24686919663297 | epot = -14.0397963337814 | etot = -5.62847191114362
198000  ekin = 4.1307492037294 |  erot = 4.15919636754484 | epot = -13.9184174820224 | etot = -5.6284719107482
199000  ekin = 4.09062074736169 |  erot = 4.06700829109738 | epot = -13.7861009486896 | etot = -5.62847191023054
200000  ekin = 4.04792338687197 |  erot = 3.97356549445253 | epot = -13.6499607909685 | etot = -5.62847190964403
201000  ekin = 4.00668244919768 |  erot = 3.88277215508889 | epot = -13.5179265133889 | etot = -5.62847190910235
202000  ekin = 3.97063392471714 |  erot = 3.79828207702005 | epot = -13.3973879104089 | etot = -5.62847190867167
203000  ekin = 3.94283665189363 |  erot = 3.72290259923685 | epot = -13.2942111595164 | etot = -5.62847190838592
204000  ekin = 3.92540743372129 |  erot = 3.65835216262287 | epot = -13.2122315045944 | etot = -5.62847190825024
205000  ekin = 3.91946432177268 |  erot = 3.60562062220826 | epot = -13.1535568521697 | etot = -5.62847190818874
206000  ekin = 3.92515912499385 |  erot = 3.56510062726484 | epot = -13.1187316605132 | etot = -5.62847190825455
207000  ekin = 3.94166066189525 |  erot = 3.53643554884976 | epot = -13.1065681191262 | etot = -5.62847190838116
208000  ekin = 3.96741904659572 |  erot = 3.51909285318865 | epot = -13.1149838083198 | etot = -5.62847190853547
209000  ekin = 3.99456273872573 |  erot = 3.50083315850276 | epot = -13.1238678065881 | etot = -5.62847190935961
210000  ekin = 4.04796401860222 |  erot = 3.4916895489081 | epot = -13.1681254815362 | etot = -5.6284719140259
211000  ekin = 4.09773342715865 |  erot = 3.49304812012808 | epot = -13.219253454632 | etot = -5.62847190734532
212000  ekin = 4.14205596974211 |  erot = 3.50221111647763 | epot = -13.2727389936859 | etot = -5.62847190746615
213000  ekin = 4.18461227969074 |  erot = 3.51992604962338 | epot = -13.3330102373202 | etot = -5.62847190800612
214000  ekin = 4.22291801220822 |  erot = 3.54318058637888 | epot = -13.3945705067362 | etot = -5.62847190814911
215000  ekin = 4.25639069943838 |  erot = 3.57018634832878 | epot = -13.4550489560032 | etot = -5.62847190823607
216000  ekin = 4.28517056130546 |  erot = 3.59920416165327 | epot = -13.5128466312768 | etot = -5.62847190831812
217000  ekin = 4.30951457891107 |  erot = 3.62862634730523 | epot = -13.5666128346049 | etot = -5.62847190838858
218000  ekin = 4.33022749097323 |  erot = 3.6563911824759 | epot = -13.6150905819282 | etot = -5.62847190847904
219000  ekin = 4.3482273918853 |  erot = 3.68015661121769 | epot = -13.6568559116862 | etot = -5.62847190858321
220000  ekin = 4.36437280258112 |  erot = 3.69755509928774 | epot = -13.6903998105143 | etot = -5.62847190864547
221000  ekin = 4.37954317243188 |  erot = 3.706609768246 | epot = -13.71462484937 | etot = -5.62847190869207
222000  ekin = 4.39451292716853 |  erot = 3.70596363375707 | epot = -13.7289484695946 | etot = -5.62847190866905
223000  ekin = 4.41008213188753 |  erot = 3.69513355487813 | epot = -13.73368759534 | etot = -5.62847190857432
224000  ekin = 4.42678943726 |  erot = 3.67466536393928 | epot = -13.7299267097397 | etot = -5.62847190854037
225000  ekin = 4.44460701700733 |  erot = 3.64600909388406 | epot = -13.719088019261 | etot = -5.62847190836962
226000  ekin = 4.47380092382103 |  erot = 3.58830814098274 | epot = -13.6905809780343 | etot = -5.62847191323053
227000  ekin = 4.56056009803481 |  erot = 3.47269306832282 | epot = -13.6617250773563 | etot = -5.62847191099867
228000  ekin = 4.61083327530768 |  erot = 3.40803816011391 | epot = -13.647343347546 | etot = -5.62847191212443
229000  ekin = 4.6315001316769 |  erot = 3.35898149000868 | epot = -13.6189535337033 | etot = -5.62847191201767
230000  ekin = 4.65431068143748 |  erot = 3.31343017818576 | epot = -13.5962127716252 | etot = -5.62847191200195
231000  ekin = 4.67934821404579 |  erot = 3.27332737527256 | epot = -13.5811475014849 | etot = -5.62847191216654
232000  ekin = 4.70592354946071 |  erot = 3.23944506667631 | epot = -13.5738405284596 | etot = -5.62847191232258
233000  ekin = 4.73271416122325 |  erot = 3.21144788525886 | epot = -13.572633959042 | etot = -5.62847191255985
234000  ekin = 4.75943444984858 |  erot = 3.19078729233654 | epot = -13.5786936545777 | etot = -5.62847191239256
235000  ekin = 4.78642241817931 |  erot = 3.18021193976828 | epot = -13.5951062703944 | etot = -5.62847191244679
236000  ekin = 4.81315037988091 |  erot = 3.18017325334925 | epot = -13.6217955456973 | etot = -5.6284719124671
237000  ekin = 4.83923297185448 |  erot = 3.19145400453425 | epot = -13.6591588888803 | etot = -5.62847191249156
238000  ekin = 4.86487585931712 |  erot = 3.21481908800306 | epot = -13.7081668597344 | etot = -5.62847191241422
239000  ekin = 4.89063931714857 |  erot = 3.25114955281992 | epot = -13.7702607826828 | etot = -5.62847191271429
240000  ekin = 4.91656145052469 |  erot = 3.29901781218822 | epot = -13.8440511754902 | etot = -5.62847191277729
241000  ekin = 4.94245255089279 |  erot = 3.35699698381489 | epot = -13.927921447711 | etot = -5.62847191300333
242000  ekin = 4.96767380346072 |  erot = 3.42365009425888 | epot = -14.0197958109203 | etot = -5.62847191320068
243000  ekin = 5.00573446225128 |  erot = 3.47030260469017 | epot = -14.1045089792015 | etot = -5.62847191226003
244000  ekin = 5.06987350321264 |  erot = 3.50985787352015 | epot = -14.2082032933005 | etot = -5.62847191656772
245000  ekin = 5.08405115957565 |  erot = 3.57323736718521 | epot = -14.2857604930699 | etot = -5.62847196630908
246000  ekin = 5.13867281568797 |  erot = 3.53022410786649 | epot = -14.2973688418942 | etot = -5.62847191833968
247000  ekin = 5.24446071734747 |  erot = 3.6370719263951 | epot = -14.5100045566448 | etot = -5.62847191290219
248000  ekin = 5.23528120841664 |  erot = 3.74023330973812 | epot = -14.603986431163 | etot = -5.62847191300829
249000  ekin = 5.21260078435095 |  erot = 3.83729795659979 | epot = -14.6783706538225 | etot = -5.62847191287172
250000  ekin = 5.17839081250236 |  erot = 3.92749000333597 | epot = -14.7343527284447 | etot = -5.62847191260641
251000  ekin = 5.13586036333887 |  erot = 4.01108345357421 | epot = -14.7754157290633 | etot = -5.62847191215025
252000  ekin = 5.08918292106374 |  erot = 4.09018694184294 | epot = -14.8078417745563 | etot = -5.62847191164967
253000  ekin = 5.04264218495343 |  erot = 4.16759058211689 | epot = -14.8387046782779 | etot = -5.6284719112076
254000  ekin = 4.99116344078941 |  erot = 4.24248912287704 | epot = -14.8621245493493 | etot = -5.62847198568283
255000  ekin = 4.72637462800082 |  erot = 4.24407837663918 | epot = -14.598924932606 | etot = -5.62847192796603
256000  ekin = 4.59834109997747 |  erot = 4.3636978220955 | epot = -14.590510836481 | etot = -5.628471914408
257000  ekin = 4.77089539876735 |  erot = 4.60066315314417 | epot = -15.0000305289723 | etot = -5.62847197706076
258000  ekin = 4.85704242990023 |  erot = 4.66807324375898 | epot = -15.1535875814124 | etot = -5.62847190775315
259000  ekin = 4.8990181147241 |  erot = 4.72718635920573 | epot = -15.2546763808536 | etot = -5.62847190692381
260000  ekin = 4.94107094739441 |  erot = 4.79406863685401 | epot = -15.3636114914076 | etot = -5.62847190715915
261000  ekin = 4.98242309074991 |  erot = 4.86508628580719 | epot = -15.4759812846173 | etot = -5.62847190806023
262000  ekin = 5.01659840998589 |  erot = 4.93871137847389 | epot = -15.5837816973607 | etot = -5.62847190890089
263000  ekin = 5.03982661194548 |  erot = 5.00983839411409 | epot = -15.6781369155671 | etot = -5.62847190950752
264000  ekin = 5.04732696349916 |  erot = 5.07389667598381 | epot = -15.7496955495892 | etot = -5.62847191010624
265000  ekin = 5.03448807085153 |  erot = 5.12688367712831 | epot = -15.7898436586181 | etot = -5.62847191063827
266000  ekin = 4.99773438959709 |  erot = 5.1648068353139 | epot = -15.7910131359603 | etot = -5.62847191104929
267000  ekin = 4.93508497406376 |  erot = 5.18388050749934 | epot = -15.7474373928659 | etot = -5.62847191130276
268000  ekin = 4.84654531471032 |  erot = 5.18063468558732 | epot = -15.6556519116814 | etot = -5.62847191138378
269000  ekin = 4.73423214274833 |  erot = 5.15198859731757 | epot = -15.514692651356 | etot = -5.62847191129009
270000  ekin = 4.60224202248732 |  erot = 5.09540688816885 | epot = -15.3261208188941 | etot = -5.62847190823792
271000  ekin = 4.45636876655135 |  erot = 5.0092331738821 | epot = -15.0940738482001 | etot = -5.62847190776669
272000  ekin = 4.30375505735658 |  erot = 4.89315778304277 | epot = -14.825384747496 | etot = -5.62847190709662
273000  ekin = 4.15244061480085 |  erot = 4.74862648123407 | epot = -14.5295390022962 | etot = -5.62847190626124
274000  ekin = 4.01137482334594 |  erot = 4.57896672456523 | epot = -14.218813453225 | etot = -5.62847190531381
275000  ekin = 3.8738887289273 |  erot = 4.38950805795242 | epot = -13.891868716993 | etot = -5.62847193011323
276000  ekin = 3.70828148350347 |  erot = 4.18975567950196 | epot = -13.52650906547 | etot = -5.62847190246459
277000  ekin = 3.7402518794026 |  erot = 3.98894405210674 | epot = -13.3576678645677 | etot = -5.62847193305836
278000  ekin = 3.74221760775465 |  erot = 3.77038543692088 | epot = -13.1410749479163 | etot = -5.62847190324075
279000  ekin = 3.75220115766743 |  erot = 3.55790331814903 | epot = -12.9385763794581 | etot = -5.62847190364161
280000  ekin = 3.77561814014487 |  erot = 3.35781654492791 | epot = -12.7619065883812 | etot = -5.62847190330838
281000  ekin = 3.81272927484669 |  erot = 3.17409695196547 | epot = -12.6152981298187 | etot = -5.62847190300655
282000  ekin = 3.86501988036637 |  erot = 3.00952640155234 | epot = -12.5030181842064 | etot = -5.62847190228772
283000  ekin = 3.93628900406727 |  erot = 2.86613168182112 | epot = -12.4308925881249 | etot = -5.62847190223648
284000  ekin = 4.02702703050046 |  erot = 2.7448030650025 | epot = -12.4003019979001 | etot = -5.62847190239717
285000  ekin = 4.14139706639695 |  erot = 2.64599110157961 | epot = -12.4158600691636 | etot = -5.62847190118707
286000  ekin = 4.285257749179 |  erot = 2.56950762489235 | epot = -12.4832372763187 | etot = -5.62847190224737
287000  ekin = 4.44987555795307 |  erot = 2.5149381006826 | epot = -12.5932855609537 | etot = -5.62847190231799
288000  ekin = 4.63520922264598 |  erot = 2.4810011255552 | epot = -12.7446822515442 | etot = -5.62847190334306
289000  ekin = 4.8312579700545 |  erot = 2.46527241539415 | epot = -12.9250022896842 | etot = -5.62847190423554
290000  ekin = 5.02763799219379 |  erot = 2.46542435681692 | epot = -13.1215342540968 | etot = -5.62847190508612
291000  ekin = 5.21465468575778 |  erot = 2.47913524144371 | epot = -13.322261832966 | etot = -5.62847190576454
292000  ekin = 5.38472348790173 |  erot = 2.50416430328845 | epot = -13.517359697429 | etot = -5.62847190623881
293000  ekin = 5.53302487062905 |  erot = 2.53823701976136 | epot = -13.6997337969525 | etot = -5.62847190656211
294000  ekin = 5.65718701899503 |  erot = 2.57877496352817 | epot = -13.8644338893345 | etot = -5.62847190681132
295000  ekin = 5.756527804967 |  erot = 2.62269919783926 | epot = -14.0076989098358 | etot = -5.62847190702951
296000  ekin = 5.83139499491562 |  erot = 2.66652171228857 | epot = -14.1263886144124 | etot = -5.62847190720823
297000  ekin = 5.88282356332317 |  erot = 2.70675614330027 | epot = -14.2180516139343 | etot = -5.62847190731088
298000  ekin = 5.91239748765367 |  erot = 2.74048494300746 | epot = -14.2813543379706 | etot = -5.62847190730952
299000  ekin = 5.92208198046645 |  erot = 2.76585299302111 | epot = -14.3164068806935 | etot = -5.62847190720597
300000  ekin = 5.9139094201897 |  erot = 2.78233336188679 | epot = -14.3247146891022 | etot = -5.62847190702575
301000  ekin = 5.88962133511465 |  erot = 2.79074353676028 | epot = -14.3088367786697 | etot = -5.62847190679478
302000  ekin = 5.85048781421135 |  erot = 2.79307875791867 | epot = -14.2720384786532 | etot = -5.62847190652314
303000  ekin = 5.79743517877167 |  erot = 2.79223225552759 | epot = -14.2181393405094 | etot = -5.62847190621019
304000  ekin = 5.73124340760674 |  erot = 2.79262915089453 | epot = -14.1523444641652 | etot = -5.62847190566395
305000  ekin = 5.65258268469906 |  erot = 2.79940899091287 | epot = -14.0804635809938 | etot = -5.62847190538185
306000  ekin = 5.56254653523106 |  erot = 2.81503734235244 | epot = -14.0060557827421 | etot = -5.62847190515856
307000  ekin = 5.46251129680742 |  erot = 2.84075892386097 | epot = -13.9317421257027 | etot = -5.62847190503432
308000  ekin = 5.35391293499825 |  erot = 2.87633235164036 | epot = -13.8587171916711 | etot = -5.62847190503248
309000  ekin = 5.23805007411561 |  erot = 2.91996940722985 | epot = -13.7864913863813 | etot = -5.62847190503583
310000  ekin = 5.11613875822395 |  erot = 2.96880482959564 | epot = -13.7134154931058 | etot = -5.62847190528623
311000  ekin = 4.98925852659276 |  erot = 3.01839769775137 | epot = -13.636128129812 | etot = -5.62847190546788
312000  ekin = 4.85867326622279 |  erot = 3.06421411592781 | epot = -13.5513592877728 | etot = -5.62847190562217
313000  ekin = 4.72585112667464 |  erot = 3.10236590329201 | epot = -13.4566889356306 | etot = -5.62847190566391
314000  ekin = 4.5929342104646 |  erot = 3.13002199528288 | epot = -13.3514281113045 | etot = -5.628471905557
315000  ekin = 4.46270669971878 |  erot = 3.14588950386856 | epot = -13.2370681089052 | etot = -5.62847190531788
316000  ekin = 4.3384545703459 |  erot = 3.15016989317536 | epot = -13.1170963685066 | etot = -5.62847190498533
317000  ekin = 4.22370149067741 |  erot = 3.14429402986641 | epot = -12.9964674251509 | etot = -5.62847190460708
318000  ekin = 4.12188681801312 |  erot = 3.13056754977705 | epot = -12.8809262720162 | etot = -5.62847190422599
319000  ekin = 4.03607214172582 |  erot = 3.1118418278682 | epot = -12.776385873465 | etot = -5.62847190387096
320000  ekin = 3.96873641009682 |  erot = 3.09128048611637 | epot = -12.6884887997663 | etot = -5.62847190355312
321000  ekin = 3.92167797370352 |  erot = 3.07226107993992 | epot = -12.6224109569145 | etot = -5.62847190327103
322000  ekin = 3.89600971423739 |  erot = 3.05833648374569 | epot = -12.5828181010112 | etot = -5.62847190302813
323000  ekin = 3.89216326553283 |  erot = 3.05323078720447 | epot = -12.5738659555741 | etot = -5.62847190283678
324000  ekin = 3.90971752722266 |  erot = 3.0606592013778 | epot = -12.5988486316001 | etot = -5.62847190299969
325000  ekin = 3.94474197768613 |  erot = 3.08325557843014 | epot = -12.6564694593653 | etot = -5.62847190324899
326000  ekin = 3.99225791212888 |  erot = 3.1213166619642 | epot = -12.7420464778651 | etot = -5.62847190377198
327000  ekin = 4.04715751819654 |  erot = 3.17277573873787 | epot = -12.8484051615084 | etot = -5.62847190457402
328000  ekin = 4.10306827950023 |  erot = 3.23289809101743 | epot = -12.964438276119 | etot = -5.62847190560136
329000  ekin = 4.15294077796942 |  erot = 3.29460254686963 | epot = -13.0760152315135 | etot = -5.62847190667447
330000  ekin = 4.19046086377964 |  erot = 3.34957314359183 | epot = -13.1685059148741 | etot = -5.62847190750259
331000  ekin = 4.21187936703681 |  erot = 3.38989153266416 | epot = -13.2302428076694 | etot = -5.62847190796842
332000  ekin = 4.21589857652213 |  erot = 3.41075094374496 | epot = -13.2551214281225 | etot = -5.62847190785542
333000  ekin = 4.2048526599855 |  erot = 3.4117439982443 | epot = -13.2450685654248 | etot = -5.62847190719504
334000  ekin = 4.18435368274511 |  erot = 3.39692225043819 | epot = -13.2097478393425 | etot = -5.62847190615923
335000  ekin = 4.1620545585983 |  erot = 3.37367623593697 | epot = -13.164202699523 | etot = -5.62847190498775
336000  ekin = 4.14609491419015 |  erot = 3.35093309665898 | epot = -13.1254999147541 | etot = -5.62847190390502
337000  ekin = 4.14364358929774 |  erot = 3.33736964605389 | epot = -13.1094851384239 | etot = -5.6284719030723
338000  ekin = 4.15982493121549 |  erot = 3.33968220642458 | epot = -13.1279790403714 | etot = -5.62847190273131
339000  ekin = 4.19714166714362 |  erot = 3.36120406394268 | epot = -13.1868176336938 | etot = -5.62847190260747
340000  ekin = 4.25518474379524 |  erot = 3.4039445653427 | epot = -13.2876012119381 | etot = -5.62847190280014
341000  ekin = 4.33079125358504 |  erot = 3.46797257818028 | epot = -13.4272357350049 | etot = -5.62847190323962
342000  ekin = 4.41854745256781 |  erot = 3.55173943759687 | epot = -13.5987587940123 | etot = -5.62847190384765
343000  ekin = 4.51153864836451 |  erot = 3.65250494550472 | epot = -13.7925154984174 | etot = -5.6284719045482
344000  ekin = 4.60219231315834 |  erot = 3.76671918647812 | epot = -13.9973834048923 | etot = -5.62847190525584
345000  ekin = 4.6831234351801 |  erot = 3.89042211424434 | epot = -14.202017455329 | etot = -5.62847190590454
346000  ekin = 4.74786790538004 |  erot = 4.01955036383702 | epot = -14.3958901756602 | etot = -5.62847190644317
347000  ekin = 4.79150376884678 |  erot = 4.15019529883982 | epot = -14.5701709744828 | etot = -5.62847190679619
348000  ekin = 4.81117855584292 |  erot = 4.27877359764078 | epot = -14.718424060534 | etot = -5.62847190705035
349000  ekin = 4.80564918858353 |  erot = 4.4020566269194 | epot = -14.8361777226719 | etot = -5.62847190716895
350000  ekin = 4.77545945328402 |  erot = 4.51714564004829 | epot = -14.9210770005265 | etot = -5.62847190719423
351000  ekin = 4.72262273321643 |  erot = 4.62116010887863 | epot = -14.9722547493004 | etot = -5.62847190720532
352000  ekin = 4.65007958813879 |  erot = 4.71078593020272 | epot = -14.9893374256226 | etot = -5.62847190728109
353000  ekin = 4.56109157465143 |  erot = 4.7818033558303 | epot = -14.9713668379457 | etot = -5.62847190746398
354000  ekin = 4.4587615124637 |  erot = 4.82895979646313 | epot = -14.9161932166511 | etot = -5.62847190772424
355000  ekin = 4.34584612945387 |  erot = 4.8466355310761 | epot = -14.8209535684558 | etot = -5.62847190792579
356000  ekin = 4.22495470320872 |  erot = 4.83038190907513 | epot = -14.6838085201744 | etot = -5.62847190789054
357000  ekin = 4.09903296594748 |  erot = 4.77873075092379 | epot = -14.5062356243548 | etot = -5.62847190748353
358000  ekin = 3.97178667556002 |  erot = 4.69444561048301 | epot = -14.2947041927534 | etot = -5.62847190671038
359000  ekin = 3.84767298929512 |  erot = 4.58431182212447 | epot = -14.0604567171734 | etot = -5.62847190575381
360000  ekin = 3.73136439808745 |  erot = 4.45746613156711 | epot = -13.8173024344139 | etot = -5.62847190475935
361000  ekin = 3.62758093165591 |  erot = 4.32379064504613 | epot = -13.5798434807348 | etot = -5.62847190403277
362000  ekin = 3.54294892306786 |  erot = 4.19358097113961 | epot = -13.365001797886 | etot = -5.62847190367854
363000  ekin = 3.47837311691532 |  erot = 4.07207692081966 | epot = -13.1789219412935 | etot = -5.6284719035585
364000  ekin = 3.43225009806268 |  erot = 3.96193194141594 | epot = -13.022653943067 | etot = -5.62847190358835
365000  ekin = 3.40198388463659 |  erot = 3.86460642705323 | epot = -12.895062215376 | etot = -5.62847190368618
366000  ekin = 3.38451833852517 |  erot = 3.78104622244767 | epot = -12.7940364647552 | etot = -5.62847190378234
367000  ekin = 3.37682483158373 |  erot = 3.71218000857543 | epot = -12.7174767440017 | etot = -5.62847190384254
368000  ekin = 3.37625204138703 |  erot = 3.65912147822986 | epot = -12.6638454234711 | etot = -5.62847190385418
369000  ekin = 3.38074636726875 |  erot = 3.62312680344641 | epot = -12.6323450745416 | etot = -5.62847190382645
370000  ekin = 3.38894636698741 |  erot = 3.60538856637231 | epot = -12.6228068371808 | etot = -5.62847190382105
371000  ekin = 3.40011634059928 |  erot = 3.60672333638056 | epot = -12.6353115807278 | etot = -5.62847190374793
372000  ekin = 3.41430323562736 |  erot = 3.62748920223926 | epot = -12.670264341566 | etot = -5.62847190369941
373000  ekin = 3.43217624795398 |  erot = 3.66740997408438 | epot = -12.7280581255824 | etot = -5.62847190354401
374000  ekin = 3.45538314685882 |  erot = 3.72532070766119 | epot = -12.8091757581484 | etot = -5.62847190362841
375000  ekin = 3.4845898310309 |  erot = 3.79950576965665 | epot = -12.9125675044443 | etot = -5.62847190375677
376000  ekin = 3.51994630863102 |  erot = 3.88772077540754 | epot = -13.0361389879649 | etot = -5.6284719039263
377000  ekin = 3.56162263238968 |  erot = 3.98718032086005 | epot = -13.1772748573442 | etot = -5.62847190409448
378000  ekin = 3.61009229018658 |  erot = 4.09470007580428 | epot = -13.333264270296 | etot = -5.62847190430511
379000  ekin = 3.6662193925165 |  erot = 4.20668278514888 | epot = -13.5013740821088 | etot = -5.62847190444338
380000  ekin = 3.73222313434544 |  erot = 4.31893025304282 | epot = -13.679625292268 | etot = -5.62847190487973
381000  ekin = 3.80656943722918 |  erot = 4.42661769093321 | epot = -13.861659033614 | etot = -5.62847190545159
382000  ekin = 3.88594558525417 |  erot = 4.52459411504446 | epot = -14.039011606383 | etot = -5.62847190608438
383000  ekin = 3.96695089998871 |  erot = 4.60747433893785 | epot = -14.2028971456516 | etot = -5.62847190672502
384000  ekin = 4.0461964506701 |  erot = 4.66967915256587 | epot = -14.3443475105335 | etot = -5.62847190729752
385000  ekin = 4.12092029136905 |  erot = 4.70599192061773 | epot = -14.4553841196573 | etot = -5.62847190767057
386000  ekin = 4.189455371622 |  erot = 4.7123769168053 | epot = -14.5303041965344 | etot = -5.62847190810713
387000  ekin = 4.24770733744736 |  erot = 4.68531871643881 | epot = -14.5614979619415 | etot = -5.62847190805531
388000  ekin = 4.29400518232209 |  erot = 4.62433064765753 | epot = -14.5468077376914 | etot = -5.62847190771182
389000  ekin = 4.32973751035384 |  erot = 4.53230747816152 | epot = -14.4905168956808 | etot = -5.62847190716543
390000  ekin = 4.35696496432693 |  erot = 4.41432356916601 | epot = -14.3997604400627 | etot = -5.62847190656973
391000  ekin = 4.37768888460972 |  erot = 4.27672755002362 | epot = -14.2828883405713 | etot = -5.62847190593791
392000  ekin = 4.39398588700828 |  erot = 4.12625191226686 | epot = -14.1487097046561 | etot = -5.62847190538099
393000  ekin = 4.40738241118212 |  erot = 3.96936593197109 | epot = -14.0052202479776 | etot = -5.62847190482436
394000  ekin = 4.41937568155536 |  erot = 3.81285278688523 | epot = -13.8607003731045 | etot = -5.62847190466391
395000  ekin = 4.42988768164414 |  erot = 3.66065946576675 | epot = -13.719019051943 | etot = -5.62847190453213
396000  ekin = 4.43847476589375 |  erot = 3.51525603215699 | epot = -13.5822027024434 | etot = -5.62847190439266
397000  ekin = 4.44517728397261 |  erot = 3.37891512777693 | epot = -13.4525643159672 | etot = -5.62847190421767
398000  ekin = 4.45064950026244 |  erot = 3.2539238631817 | epot = -13.3330452674416 | etot = -5.62847190399745
399000  ekin = 4.45613851377654 |  erot = 3.14269651880382 | epot = -13.2273069363799 | etot = -5.62847190379958
400000  ekin = 4.46297608306049 |  erot = 3.04745583063427 | epot = -13.1389038172409 | etot = -5.62847190354616
401000  ekin = 4.47275546002131 |  erot = 2.97053701408676 | epot = -13.0717643774687 | etot = -5.6284719033606
402000  ekin = 4.48672336701631 |  erot = 2.91396522577277 | epot = -13.0291604961306 | etot = -5.62847190334149
403000  ekin = 4.50482841073268 |  erot = 2.87870251806255 | epot = -13.0120028324116 | etot = -5.62847190361632
404000  ekin = 4.52484325731793 |  erot = 2.86379686210978 | epot = -13.0171120236803 | etot = -5.62847190425257
405000  ekin = 4.54178669955142 |  erot = 2.86535120565007 | epot = -13.0356098106794 | etot = -5.62847190547795
406000  ekin = 4.54812186979639 |  erot = 2.87565623449893 | epot = -13.052250010893 | etot = -5.62847190659767
407000  ekin = 4.53567765665099 |  erot = 2.88781666329962 | epot = -13.0519662273735 | etot = -5.62847190742284
408000  ekin = 4.49806839875757 |  erot = 2.89717319271517 | epot = -13.0237134991234 | etot = -5.62847190765069
409000  ekin = 4.43289041828941 |  erot = 2.90293173426018 | epot = -12.9642940598264 | etot = -5.62847190727677
410000  ekin = 4.34222243515516 |  erot = 2.90784571760077 | epot = -12.8785400593028 | etot = -5.62847190654684
411000  ekin = 4.2312232898585 |  erot = 2.91632332326751 | epot = -12.7760185189222 | etot = -5.62847190579621
412000  ekin = 4.10591302472887 |  erot = 2.93234263222388 | epot = -12.6667275621892 | etot = -5.6284719052364
413000  ekin = 3.97147909139875 |  erot = 2.95826875334308 | epot = -12.5582197496488 | etot = -5.62847190490695
414000  ekin = 3.83169645332364 |  erot = 2.99487215437026 | epot = -12.4550405124382 | etot = -5.62847190474427
415000  ekin = 3.68915556889821 |  erot = 3.04191716150479 | epot = -12.3595446350694 | etot = -5.62847190466643
416000  ekin = 3.54575553260449 |  erot = 3.09878213610571 | epot = -12.2730095733234 | etot = -5.62847190461317
417000  ekin = 3.4031527114915 |  erot = 3.16484246789404 | epot = -12.1964670839386 | etot = -5.62847190455307
418000  ekin = 3.26306253875951 |  erot = 3.23960054552268 | epot = -12.1311349887562 | etot = -5.62847190447403
419000  ekin = 3.1274353944849 |  erot = 3.32265867809998 | epot = -12.0785659769588 | etot = -5.62847190437392
420000  ekin = 2.99854685250214 |  erot = 3.41362396344564 | epot = -12.0406427202048 | etot = -5.62847190425704
421000  ekin = 2.87901712494096 |  erot = 3.51197880378574 | epot = -12.0194678328641 | etot = -5.62847190413745
422000  ekin = 2.77174596053684 |  erot = 3.61690112203111 | epot = -12.0171189866106 | etot = -5.6284719040427
423000  ekin = 2.67973794665826 |  erot = 3.72700827486206 | epot = -12.0352181255365 | etot = -5.62847190401618
424000  ekin = 2.6057987092955 |  erot = 3.84002717528441 | epot = -12.0742977886939 | etot = -5.62847190411399
425000  ekin = 2.55208954528073 |  erot = 3.9524416789341 | epot = -12.133003128615 | etot = -5.62847190440013
426000  ekin = 2.51954653045041 |  erot = 4.05920212807249 | epot = -12.2072205634541 | etot = -5.62847190493124
427000  ekin = 2.50725893890797 |  erot = 4.15363681829914 | epot = -12.2893676629235 | etot = -5.6284719057164
428000  ekin = 2.51210485175063 |  erot = 4.22782399614127 | epot = -12.3684007545428 | etot = -5.62847190665091
429000  ekin = 2.52911833232791 |  erot = 4.27377369072064 | epot = -12.4313639305303 | etot = -5.62847190748179
430000  ekin = 2.552849267005 |  erot = 4.28551618826402 | epot = -12.4668373631593 | etot = -5.62847190789024
431000  ekin = 2.57924139419476 |  erot = 4.26142412036563 | epot = -12.4691374222447 | etot = -5.62847190768427
432000  ekin = 2.60692475466276 |  erot = 4.20541068245901 | epot = -12.4408073440602 | etot = -5.62847190693848
433000  ekin = 2.63712842981892 |  erot = 4.12604912500917 | epot = -12.3916494607653 | etot = -5.62847190593721
434000  ekin = 2.67245542240929 |  erot = 4.03405948920949 | epot = -12.3349868166087 | etot = -5.62847190498996
435000  ekin = 2.71543854639826 |  erot = 3.93961255970443 | epot = -12.2835230103882 | etot = -5.62847190428552
436000  ekin = 2.76760991341007 |  erot = 3.85063248522912 | epot = -12.2467143025173 | etot = -5.62847190387811
437000  ekin = 2.82920515671 |  erot = 3.77223859650154 | epot = -12.2299156569396 | etot = -5.62847190372807
438000  ekin = 2.89929820058057 |  erot = 3.70707509974863 | epot = -12.2348452040986 | etot = -5.62847190376944
439000  ekin = 2.97609334154476 |  erot = 3.65590372388801 | epot = -12.2604689693747 | etot = -5.62847190394193
440000  ekin = 3.05720906611874 |  erot = 3.61815200783629 | epot = -12.3038329781571 | etot = -5.62847190420212
441000  ekin = 3.13989672827829 |  erot = 3.59232302399452 | epot = -12.3606916567923 | etot = -5.62847190451951
442000  ekin = 3.221199275176 |  erot = 3.57626892519796 | epot = -12.4259401052491 | etot = -5.62847190487511
443000  ekin = 3.29807867301043 |  erot = 3.56737972995807 | epot = -12.4939303082173 | etot = -5.62847190524875
444000  ekin = 3.36753883943128 |  erot = 3.56276348927197 | epot = -12.5587742343234 | etot = -5.62847190562011
445000  ekin = 3.42676046580429 |  erot = 3.55942025918766 | epot = -12.6146526309589 | etot = -5.62847190596699
446000  ekin = 3.47324383646502 |  erot = 3.55443462308821 | epot = -12.6561503658237 | etot = -5.62847190627045
447000  ekin = 3.50497354376159 |  erot = 3.5451141961956 | epot = -12.6785596464653 | etot = -5.62847190650811
448000  ekin = 3.52056213083438 |  erot = 3.52974100709915 | epot = -12.6787750444554 | etot = -5.62847190652183
449000  ekin = 3.51939696591226 |  erot = 3.50705904510672 | epot = -12.6549279176259 | etot = -5.62847190660697
450000  ekin = 3.50164536053998 |  erot = 3.47565071065531 | epot = -12.6057679777967 | etot = -5.62847190660136
451000  ekin = 3.46824790708355 |  erot = 3.43472151201987 | epot = -12.5314413256065 | etot = -5.62847190650308
452000  ekin = 3.42090312737412 |  erot = 3.38414558728673 | epot = -12.4335206209743 | etot = -5.62847190631348
453000  ekin = 3.36201791829285 |  erot = 3.32449206044703 | epot = -12.3149818847776 | etot = -5.62847190603775
454000  ekin = 3.29463316061496 |  erot = 3.25701739818308 | epot = -12.1801224644838 | etot = -5.62847190568571
455000  ekin = 3.2223327489973 |  erot = 3.18360703276049 | epot = -12.0344116870288 | etot = -5.62847190527101
456000  ekin = 3.1491424862963 |  erot = 3.106669921973 | epot = -11.8842843130817 | etot = -5.62847190481241
457000  ekin = 3.07939737173886 |  erot = 3.02894564057797 | epot = -11.7368149166578 | etot = -5.62847190434101
458000  ekin = 3.0175641326878 |  erot = 2.95322108561921 | epot = -11.5992571221604 | etot = -5.62847190385334
459000  ekin = 2.96810632524314 |  erot = 2.88249754735631 | epot = -11.4790757760059 | etot = -5.62847190340641
460000  ekin = 2.93513889003333 |  erot = 2.8195526752049 | epot = -11.3831634682745 | etot = -5.62847190303625
461000  ekin = 2.92205746388652 |  erot = 2.76669234907689 | epot = -11.3172217157443 | etot = -5.62847190278089
462000  ekin = 2.93114290150437 |  erot = 2.72556812595672 | epot = -11.285182930135 | etot = -5.62847190267391
463000  ekin = 2.963193196802 |  erot = 2.69703193761453 | epot = -11.2886970371544 | etot = -5.62847190273784
464000  ekin = 3.01726238568725 |  erot = 2.68105615130371 | epot = -11.3267904399677 | etot = -5.62847190297673
465000  ekin = 3.09058398932109 |  erot = 2.67674994759373 | epot = -11.3958058402863 | etot = -5.62847190337144
466000  ekin = 3.17872270900178 |  erot = 2.68248866700707 | epot = -11.4896832798909 | etot = -5.62847190388207
467000  ekin = 3.27594114495973 |  erot = 2.69614045586017 | epot = -11.6005535052764 | etot = -5.62847190445646
468000  ekin = 3.37571282133644 |  erot = 2.71534026240654 | epot = -11.7195249887841 | etot = -5.62847190504114
469000  ekin = 3.47128178262526 |  erot = 2.73774679763737 | epot = -11.8375004858542 | etot = -5.62847190559155
470000  ekin = 3.55617737698745 |  erot = 2.76123628661952 | epot = -11.9458855696826 | etot = -5.62847190607566
471000  ekin = 3.62463309399254 |  erot = 2.78402790004514 | epot = -12.0371329005082 | etot = -5.62847190647056
472000  ekin = 3.67190559891954 |  erot = 2.80477124779367 | epot = -12.1051487534714 | etot = -5.62847190675824
473000  ekin = 3.69451868440399 |  erot = 2.82263116141638 | epot = -12.1456217527421 | etot = -5.62847190692169
474000  ekin = 3.69045746330832 |  erot = 2.83737882569256 | epot = -12.156308195948 | etot = -5.62847190694708
475000  ekin = 3.65932116350155 |  erot = 2.84946541727522 | epot = -12.1372584876032 | etot = -5.62847190682644
476000  ekin = 3.60242486138031 |  erot = 2.86004016499123 | epot = -12.0909369329329 | etot = -5.6284719065614
477000  ekin = 3.52282746239466 |  erot = 2.87088465735915 | epot = -12.022184025917 | etot = -5.62847190616324
478000  ekin = 3.42525452629538 |  erot = 2.88424967270318 | epot = -11.9379761046659 | etot = -5.62847190566735
479000  ekin = 3.315883497387 |  erot = 2.90254646896156 | epot = -11.8469018714661 | etot = -5.62847190511755
480000  ekin = 3.20192949245533 |  erot = 2.92801081390499 | epot = -11.7584122109401 | etot = -5.62847190457983
481000  ekin = 3.09102106840354 |  erot = 2.96227510040078 | epot = -11.6817680729392 | etot = -5.6284719041349
482000  ekin = 2.99039932400808 |  erot = 3.00590839368232 | epot = -11.6247796215557 | etot = -5.62847190386526
483000  ekin = 2.90605693344004 |  erot = 3.05799802963064 | epot = -11.5925268669078 | etot = -5.62847190383713
484000  ekin = 2.84200171523775 |  erot = 3.11586840862258 | epot = -11.5863420279404 | etot = -5.62847190408008
485000  ekin = 2.81072036466758 |  erot = 3.03665546470234 | epot = -11.4758477219077 | etot = -5.62847189253779
486000  ekin = 2.99172671782844 |  erot = 2.8902858860975 | epot = -11.5104845146548 | etot = -5.62847191072884
487000  ekin = 3.04661020880922 |  erot = 2.89516257155195 | epot = -11.5702446859965 | etot = -5.62847190563534
488000  ekin = 3.02813445459551 |  erot = 2.91755814175642 | epot = -11.5741645018882 | etot = -5.62847190553627
489000  ekin = 3.02918173186989 |  erot = 2.94703274342923 | epot = -11.6046863809022 | etot = -5.62847190560313
490000  ekin = 3.04920929972318 |  erot = 2.9829992143949 | epot = -11.6606804199398 | etot = -5.62847190582172
491000  ekin = 3.08564623419099 |  erot = 3.02458607702712 | epot = -11.7387042173384 | etot = -5.62847190612028
492000  ekin = 3.13426650211855 |  erot = 3.07113014038557 | epot = -11.8338685489431 | etot = -5.62847190643897
493000  ekin = 3.19024782353058 |  erot = 3.12246736376845 | epot = -11.9411870939458 | etot = -5.6284719066468
494000  ekin = 3.24418110398355 |  erot = 3.17757093526494 | epot = -12.0502240477662 | etot = -5.62847200851775
495000  ekin = 3.12930691881282 |  erot = 3.12025770003084 | epot = -11.878036533674 | etot = -5.62847191483036
496000  ekin = 3.38154400855625 |  erot = 3.12702216683276 | epot = -12.1370381395995 | etot = -5.62847196421049
497000  ekin = 3.53796334300547 |  erot = 3.21345240186842 | epot = -12.3798876661118 | etot = -5.62847192123791
498000  ekin = 3.5472524224169 |  erot = 3.31274815697301 | epot = -12.4884725006454 | etot = -5.62847192125547
499000  ekin = 3.54686752389804 |  erot = 3.4293635067434 | epot = -12.6047029519883 | etot = -5.62847192134686
500000  ekin = 3.53611629141534 |  erot = 3.56214471852145 | epot = -12.7267329314502 | etot = -5.62847192151343
501000  ekin = 3.51474019581725 |  erot = 3.70831240066116 | epot = -12.8515245182374 | etot = -5.62847192175898
502000  ekin = 3.48291543615037 |  erot = 3.86351597861986 | epot = -12.9749033367618 | etot = -5.6284719219916
503000  ekin = 3.44167367982642 |  erot = 4.02200657199232 | epot = -13.0921521741671 | etot = -5.62847192234838
504000  ekin = 3.39166561936655 |  erot = 4.17733332046507 | epot = -13.1974708625731 | etot = -5.62847192274148
505000  ekin = 3.33344269449621 |  erot = 4.32266370131345 | epot = -13.2845783189423 | etot = -5.6284719231326
506000  ekin = 3.26726906278425 |  erot = 4.45157764167813 | epot = -13.3473186278622 | etot = -5.62847192339982
507000  ekin = 3.19388361648437 |  erot = 4.55898983233227 | epot = -13.3813453723024 | etot = -5.62847192348578
508000  ekin = 3.11462724047782 |  erot = 4.64207406475708 | epot = -13.38517322857 | etot = -5.62847192333505
509000  ekin = 3.03154551888639 |  erot = 4.70083202647209 | epot = -13.3608494683146 | etot = -5.62847192295616
510000  ekin = 2.94513058609979 |  erot = 4.73730594225094 | epot = -13.3109084508373 | etot = -5.6284719224866
511000  ekin = 2.85640718492649 |  erot = 4.75516581385187 | epot = -13.2400449207003 | etot = -5.62847192192196
512000  ekin = 2.76854482523032 |  erot = 4.75962991525388 | epot = -13.1566466618495 | etot = -5.62847192136524
513000  ekin = 2.68465921480798 |  erot = 4.7559951319583 | epot = -13.0691262676653 | etot = -5.62847192089906
514000  ekin = 2.60745568311642 |  erot = 4.7487016866067 | epot = -12.9846292903067 | etot = -5.62847192058357
515000  ekin = 2.53899080261322 |  erot = 4.74082869238836 | epot = -12.9082914154076 | etot = -5.62847192040599
516000  ekin = 2.48057862893861 |  erot = 4.73416754062731 | epot = -12.843218089923 | etot = -5.6284719203571
517000  ekin = 2.4328129901731 |  erot = 4.72933651071398 | epot = -12.7906214212907 | etot = -5.62847192040365
518000  ekin = 2.39567246197756 |  erot = 4.72611868193529 | epot = -12.7502630644181 | etot = -5.62847192050529
519000  ekin = 2.36868008074521 |  erot = 4.72386163457354 | epot = -12.7210136359397 | etot = -5.628471920621
520000  ekin = 2.35109068029063 |  erot = 4.72186744276463 | epot = -12.7014300437704 | etot = -5.62847192071517
521000  ekin = 2.3420742612162 |  erot = 4.71970227700459 | epot = -12.6902484589873 | etot = -5.62847192076652
522000  ekin = 2.34085858394597 |  erot = 4.71735113728179 | epot = -12.6866816420013 | etot = -5.62847192077357
523000  ekin = 2.34541603963273 |  erot = 4.65571671268693 | epot = -12.629604682802 | etot = -5.62847193048232
524000  ekin = 2.39460269536699 |  erot = 4.5440923967589 | epot = -12.5671670124053 | etot = -5.62847192027943
525000  ekin = 2.51755565343824 |  erot = 4.49060445324276 | epot = -12.6366320324061 | etot = -5.62847192572512
526000  ekin = 2.63891940337102 |  erot = 4.49670026128827 | epot = -12.7640916024453 | etot = -5.62847193778604
527000  ekin = 2.68130557077684 |  erot = 4.5050333737807 | epot = -12.8148108746521 | etot = -5.62847193009458
528000  ekin = 2.7145079501044 |  erot = 4.510987986317 | epot = -12.8539678666159 | etot = -5.62847193019446
529000  ekin = 2.7472719239444 |  erot = 4.51402301144744 | epot = -12.8897668656564 | etot = -5.6284719302646
530000  ekin = 2.77952118314916 |  erot = 4.51256666254153 | epot = -12.9205597759816 | etot = -5.62847193029092
531000  ekin = 2.81130699780017 |  erot = 4.50555264767809 | epot = -12.9453315757478 | etot = -5.62847193026952
532000  ekin = 2.84274553228818 |  erot = 4.49253106980891 | epot = -12.9637485323064 | etot = -5.62847193020935
533000  ekin = 2.8739331377096 |  erot = 4.4736178023368 | epot = -12.976022870177 | etot = -5.62847193013055
534000  ekin = 2.90486933808839 |  erot = 4.44928844615923 | epot = -12.9826297143038 | etot = -5.62847193005613
535000  ekin = 2.93541519866274 |  erot = 4.42010482064403 | epot = -12.9839919493088 | etot = -5.62847193000199
536000  ekin = 2.96529830148457 |  erot = 4.38649798394727 | epot = -12.9802682154045 | etot = -5.62847192997269
537000  ekin = 2.99415467151441 |  erot = 4.34867665835478 | epot = -12.9713032598221 | etot = -5.62847192995292
538000  ekin = 3.02158801649541 |  erot = 4.30669342608939 | epot = -12.9567533725372 | etot = -5.62847192995244
539000  ekin = 3.04722844373468 |  erot = 4.26048951904522 | epot = -12.9361898927283 | etot = -5.62847192994836
540000  ekin = 3.07077963643793 |  erot = 4.21000980478473 | epot = -12.9092613711541 | etot = -5.62847192993142
541000  ekin = 3.09204730616681 |  erot = 4.15535061585444 | epot = -12.875869851918 | etot = -5.62847192989674
542000  ekin = 3.1109483133354 |  erot = 4.09682671838556 | epot = -12.8362469615648 | etot = -5.62847192984382
543000  ekin = 3.12750284883002 |  erot = 4.03499383130984 | epot = -12.7909686099152 | etot = -5.62847192977535
544000  ekin = 3.14181233918416 |  erot = 3.97062692620516 | epot = -12.7409111950898 | etot = -5.62847192970052
545000  ekin = 3.1540236927889 |  erot = 3.90462208416587 | epot = -12.6871177065822 | etot = -5.62847192962745
546000  ekin = 3.16427777378372 |  erot = 3.83809465727098 | epot = -12.6308443606139 | etot = -5.62847192955925
547000  ekin = 3.1726324531645 |  erot = 3.77248542236923 | epot = -12.5735898050658 | etot = -5.62847192953203
548000  ekin = 3.17905114129224 |  erot = 3.70842416474754 | epot = -12.5159472355791 | etot = -5.6284719295393
549000  ekin = 3.18335924853996 |  erot = 3.64619443422297 | epot = -12.4580256123023 | etot = -5.62847192953938
550000  ekin = 3.18506506661626 |  erot = 3.58603484427592 | epot = -12.3995718405455 | etot = -5.62847192965329
551000  ekin = 3.1835411886799 |  erot = 3.52751972613152 | epot = -12.3395328446034 | etot = -5.62847192979194
552000  ekin = 3.17814056101934 |  erot = 3.4697331722737 | epot = -12.2763456632264 | etot = -5.6284719299334
553000  ekin = 3.16816249050027 |  erot = 3.41187716291608 | epot = -12.208511583461 | etot = -5.62847193004465
554000  ekin = 3.15297464058756 |  erot = 3.35363386890537 | epot = -12.1350804395811 | etot = -5.6284719300882
555000  ekin = 3.13218065544939 |  erot = 3.29554931589339 | epot = -12.0562019013724 | etot = -5.62847193002962
556000  ekin = 3.1058199574624 |  erot = 3.23932890452139 | epot = -11.9736207918303 | etot = -5.6284719298465
557000  ekin = 3.07457883901098 |  erot = 3.18795403304996 | epot = -11.8910048015918 | etot = -5.62847192953086
558000  ekin = 3.03998262657293 |  erot = 3.14553707333108 | epot = -11.8139916290134 | etot = -5.62847192910944
559000  ekin = 3.00450378989371 |  erot = 3.11693712833885 | epot = -11.7499128468141 | etot = -5.62847192858156
560000  ekin = 2.97145203627674 |  erot = 3.10758181982939 | epot = -11.7075057841292 | etot = -5.62847192802303
561000  ekin = 2.94451934107527 |  erot = 3.12267269750555 | epot = -11.6956639661457 | etot = -5.62847192756484
562000  ekin = 2.92714140963445 |  erot = 3.16633554918651 | epot = -11.7219488860699 | etot = -5.62847192724892
563000  ekin = 2.92206147632016 |  erot = 3.2407705434978 | epot = -11.791303947018 | etot = -5.62847192720005
564000  ekin = 2.93031627660919 |  erot = 3.34563410950881 | epot = -11.9044223136187 | etot = -5.62847192750074
565000  ekin = 2.95068712297704 |  erot = 3.4775123295783 | epot = -12.0566713807101 | etot = -5.62847192815482
566000  ekin = 2.97962685526646 |  erot = 3.62985521351231 | epot = -12.2379539979045 | etot = -5.62847192912572
567000  ekin = 3.01171593580867 |  erot = 3.79324477332921 | epot = -12.4334326394541 | etot = -5.62847193031626
568000  ekin = 3.04054477452883 |  erot = 3.95610049168896 | epot = -12.6251171978065 | etot = -5.62847193158871
569000  ekin = 3.05981811084874 |  erot = 4.1057650573099 | epot = -12.7940551009425 | etot = -5.62847193278388
570000  ekin = 3.06446758303572 |  erot = 4.22987220707386 | epot = -12.9228117238518 | etot = -5.6284719337422
571000  ekin = 3.05159191046946 |  erot = 4.31782950104912 | epot = -12.9978933458454 | etot = -5.62847193432679
572000  ekin = 3.02108996845081 |  erot = 4.36217384040382 | epot = -13.0117357433036 | etot = -5.628471934449
573000  ekin = 2.97589592651692 |  erot = 4.35953364445769 | epot = -12.963901505062 | etot = -5.62847193408738
574000  ekin = 2.92177260952524 |  erot = 4.31098813646465 | epot = -12.8612326792891 | etot = -5.62847193329919
575000  ekin = 2.86675845150204 |  erot = 4.22206447602801 | epot = -12.7172948575688 | etot = -5.62847193003871
576000  ekin = 2.82238695048044 |  erot = 4.11002108699535 | epot = -12.5608799669938 | etot = -5.62847192951796
577000  ekin = 2.79586021291405 |  erot = 3.98405314233399 | epot = -12.4083852843358 | etot = -5.62847192908779
578000  ekin = 2.79062678652059 |  erot = 3.8481617389999 | epot = -12.267260454369 | etot = -5.6284719288485
579000  ekin = 2.80727876767764 |  erot = 3.70630768398201 | epot = -12.142058380492 | etot = -5.62847192883232
580000  ekin = 2.84308800286873 |  erot = 3.56147502223499 | epot = -12.0330349544028 | etot = -5.62847192929904
581000  ekin = 2.89275945170827 |  erot = 3.41677708038617 | epot = -11.9380084614679 | etot = -5.62847192937345
582000  ekin = 2.94948274099573 |  erot = 3.27852635631677 | epot = -11.8564810267555 | etot = -5.62847192944305
583000  ekin = 3.00600312781041 |  erot = 3.15339507868246 | epot = -11.7878701359194 | etot = -5.62847192942657
584000  ekin = 3.05615870302305 |  erot = 3.04800743034618 | epot = -11.7326380626713 | etot = -5.62847192930206
585000  ekin = 3.09596263907669 |  erot = 2.96828908154656 | epot = -11.6927236497153 | etot = -5.62847192909209
586000  ekin = 3.12407298198326 |  erot = 2.91878541591849 | epot = -11.6713303267296 | etot = -5.6284719288278
587000  ekin = 3.14174614220174 |  erot = 2.90225430096509 | epot = -11.6724723717052 | etot = -5.62847192853836
588000  ekin = 3.15240031621877 |  erot = 2.91960613647146 | epot = -11.7004783809522 | etot = -5.62847192826195
589000  ekin = 3.16081808256953 |  erot = 2.97006448179414 | epot = -11.7593544924047 | etot = -5.62847192804107
590000  ekin = 3.1720482738631 |  erot = 3.05134069934031 | epot = -11.8518609011201 | etot = -5.62847192791668
591000  ekin = 3.19150299841078 |  erot = 3.16015018740398 | epot = -11.9801251138083 | etot = -5.62847192799351
592000  ekin = 3.22264872305399 |  erot = 3.29204057525419 | epot = -12.1431612266266 | etot = -5.6284719283184
593000  ekin = 3.26585695466848 |  erot = 3.44092346948431 | epot = -12.3352523530125 | etot = -5.62847192885973
594000  ekin = 3.31918005199197 |  erot = 3.59965335612608 | epot = -12.5473053376834 | etot = -5.62847192956539
595000  ekin = 3.37897127086367 |  erot = 3.76045843953513 | epot = -12.7679016406894 | etot = -5.62847193029056
596000  ekin = 3.43824068582216 |  erot = 3.91359738337764 | epot = -12.9803100018255 | etot = -5.62847193262569
597000  ekin = 3.48744876801579 |  erot = 4.04782437872975 | epot = -13.163745080005 | etot = -5.62847193325945
598000  ekin = 3.52187002173425 |  erot = 4.15698580437618 | epot = -13.3073277597241 | etot = -5.6284719336137
599000  ekin = 3.53831455075311 |  erot = 4.23767846722673 | epot = -13.4044649516653 | etot = -5.62847193368547
600000  ekin = 3.53510970432764 |  erot = 4.28920847116296 | epot = -13.452790109008 | etot = -5.62847193351744
601000  ekin = 3.51191041820047 |  erot = 4.31320178205821 | epot = -13.4535841334382 | etot = -5.62847193317951
602000  ekin = 3.46937521147864 |  erot = 4.31295152750249 | epot = -13.4107986717273 | etot = -5.62847193274619
603000  ekin = 3.40882221242167 |  erot = 4.29270411938589 | epot = -13.3299982640864 | etot = -5.62847193227889
604000  ekin = 3.33194570982442 |  erot = 4.25705245873727 | epot = -13.2174701003799 | etot = -5.62847193181817
605000  ekin = 3.24062643787408 |  erot = 4.21052248047215 | epot = -13.0796208497303 | etot = -5.62847193138411
606000  ekin = 3.13683319325164 |  erot = 4.15735875804797 | epot = -12.9226638822803 | etot = -5.62847193098064
607000  ekin = 3.02259481109014 |  erot = 4.10146703780607 | epot = -12.7525337794981 | etot = -5.62847193060193
608000  ekin = 2.90001652259752 |  erot = 4.04645475164073 | epot = -12.5749432044762 | etot = -5.6284719302379
609000  ekin = 2.77131728807743 |  erot = 3.99571460787853 | epot = -12.3955038258342 | etot = -5.62847192987822
610000  ekin = 2.63886938890133 |  erot = 3.95250622997789 | epot = -12.2198475483957 | etot = -5.62847192951651
611000  ekin = 2.50524882250284 |  erot = 3.9200329378465 | epot = -12.0537536892122 | etot = -5.62847192886285
612000  ekin = 2.37382087281733 |  erot = 3.90218869860777 | epot = -11.9044814999589 | etot = -5.62847192853382
613000  ekin = 2.24769613363769 |  erot = 3.90186788756774 | epot = -11.7780359494303 | etot = -5.62847192822488
614000  ekin = 2.12975142864129 |  erot = 3.92103062122226 | epot = -11.6792539778417 | etot = -5.62847192797817
615000  ekin = 2.0228367646577 |  erot = 3.96080056836538 | epot = -11.6121092608513 | etot = -5.62847192782822
616000  ekin = 1.92967019046481 |  erot = 4.02099162192732 | epot = -11.5791337402005 | etot = -5.62847192780835
617000  ekin = 1.85273791862221 |  erot = 4.09974474413735 | epot = -11.5809545907071 | etot = -5.6284719279475
618000  ekin = 1.7942029629659 |  erot = 4.19322703632151 | epot = -11.6159019275468 | etot = -5.62847192825935
619000  ekin = 1.7558319743067 |  erot = 4.29552606656286 | epot = -11.6798299695984 | etot = -5.6284719287288
620000  ekin = 1.73895870101579 |  erot = 4.39891672383455 | epot = -11.7663473541522 | etot = -5.62847192930183
621000  ekin = 1.74449834720675 |  erot = 4.49462250673985 | epot = -11.8675927838338 | etot = -5.62847192988717
622000  ekin = 1.77300875733625 |  erot = 4.57403518099698 | epot = -11.975515868712 | etot = -5.62847193037872
623000  ekin = 1.8247662667428 |  erot = 4.63011744403027 | epot = -12.0833556414647 | etot = -5.6284719306916
624000  ekin = 1.8998055610579 |  erot = 4.65854151401245 | epot = -12.1868190058654 | etot = -5.62847193079507
625000  ekin = 1.99788931018427 |  erot = 4.65817060168499 | epot = -12.2845318425866 | etot = -5.62847193071737
626000  ekin = 2.1184193901962 |  erot = 4.63077870091135 | epot = -12.3776700216328 | etot = -5.62847193052524
627000  ekin = 2.26034340512622 |  erot = 4.58024268393674 | epot = -12.4690580193515 | etot = -5.62847193028851
628000  ekin = 2.42211143995353 |  erot = 4.51161612048757 | epot = -12.5621994905026 | etot = -5.62847193006155
629000  ekin = 2.60047669424892 |  erot = 4.43316974503415 | epot = -12.6621183686841 | etot = -5.62847192940101
630000  ekin = 2.75035749012207 |  erot = 4.31003905740911 | epot = -12.6888685132349 | etot = -5.62847196570375
631000  ekin = 2.81471524151243 |  erot = 4.11774535984661 | epot = -12.5609325371192 | etot = -5.62847193576018
632000  ekin = 2.95867552227573 |  erot = 4.07926707207045 | epot = -12.666414527213 | etot = -5.62847193286683
633000  ekin = 3.21010693603902 |  erot = 4.20581326821981 | epot = -13.0443921663319 | etot = -5.62847196207312
634000  ekin = 3.41641131503966 |  erot = 4.25928215926901 | epot = -13.3041654106754 | etot = -5.62847193636674
635000  ekin = 3.57385274078073 |  erot = 4.24018711598896 | epot = -13.4425117939067 | etot = -5.62847193713698
636000  ekin = 3.71894531193636 |  erot = 4.21896102701296 | epot = -13.5663782769224 | etot = -5.62847193797306
637000  ekin = 3.8455596284758 |  erot = 4.19009538990885 | epot = -13.6641269570532 | etot = -5.62847193866859
638000  ekin = 3.9487423272219 |  erot = 4.14881281924733 | epot = -13.7260270855066 | etot = -5.62847193903733
639000  ekin = 4.02564653198217 |  erot = 4.09271382118595 | epot = -13.7468322921713 | etot = -5.62847193900317
640000  ekin = 4.07582551363313 |  erot = 4.02260436118034 | epot = -13.7269018134291 | etot = -5.62847193861566
641000  ekin = 4.10019063758848 |  erot = 3.94203419565996 | epot = -13.6706967717108 | etot = -5.6284719384624
642000  ekin = 4.09923585986181 |  erot = 3.85569636510733 | epot = -13.5834041628524 | etot = -5.62847193788324
643000  ekin = 4.07616079968738 |  erot = 3.76850329634109 | epot = -13.4731360333875 | etot = -5.62847193735901
644000  ekin = 4.03483546292852 |  erot = 3.68428538412552 | epot = -13.3475927839986 | etot = -5.62847193694451
645000  ekin = 3.97939693519711 |  erot = 3.60521279247466 | epot = -13.2130816642947 | etot = -5.62847193662297
646000  ekin = 3.91424157377637 |  erot = 3.53197746516343 | epot = -13.07469097528 | etot = -5.62847193634023
647000  ekin = 3.84412108337797 |  erot = 3.46430751175801 | epot = -12.9369005313173 | etot = -5.62847193618131
648000  ekin = 3.77442093434188 |  erot = 3.40030625098912 | epot = -12.8031991211948 | etot = -5.62847193586377
649000  ekin = 3.71064844388615 |  erot = 3.33902116860478 | epot = -12.6781415480326 | etot = -5.62847193554172
650000  ekin = 3.65777288951055 |  erot = 3.28036981760406 | epot = -12.5666146423838 | etot = -5.62847193526924
651000  ekin = 3.61962254744838 |  erot = 3.22458240434029 | epot = -12.4726768868811 | etot = -5.62847193509246
652000  ekin = 3.59838866977381 |  erot = 3.17201593044416 | epot = -12.3988765352479 | etot = -5.62847193502994
653000  ekin = 3.5944766005968 |  erot = 3.12302902490705 | epot = -12.3459775605689 | etot = -5.62847193506505
654000  ekin = 3.60674141925023 |  erot = 3.07797678375896 | epot = -12.3131901381668 | etot = -5.62847193515766
655000  ekin = 3.6329884132039 |  erot = 3.03728497086939 | epot = -12.2987453193419 | etot = -5.62847193526861
[...]
837000  ekin = 3.13471078588921 |  erot = 2.97067133318882 | epot = -11.7338540878698 | etot = -5.62847196879174
838000  ekin = 3.26467976713309 |  erot = 2.97489019163573 | epot = -11.8680419280392 | etot = -5.62847196927042
839000  ekin = 3.39062361867175 |  erot = 2.97696578971697 | epot = -11.9960613781076 | etot = -5.62847196971892
840000  ekin = 3.50719613946328 |  erot = 2.97513773555572 | epot = -12.1108058451426 | etot = -5.62847197012354
841000  ekin = 3.60951430186691 |  erot = 2.96792302745716 | epot = -12.2059092997961 | etot = -5.62847197047205
842000  ekin = 3.69330308153827 |  erot = 2.95419217590655 | epot = -12.2759672281965 | etot = -5.62847197075171
843000  ekin = 3.75502927873828 |  erot = 2.93326273105189 | epot = -12.3167639807357 | etot = -5.62847197094556
844000  ekin = 3.79205095595526 |  erot = 2.90501003420071 | epot = -12.3255329611898 | etot = -5.62847197103387
845000  ekin = 3.80278826853027 |  erot = 2.86997708470651 | epot = -12.301237324235 | etot = -5.62847197099818
846000  ekin = 3.78689078265098 |  erot = 2.8294460731034 | epot = -12.244808826582 | etot = -5.62847197082764
847000  ekin = 3.74534923681659 |  erot = 2.78543388071982 | epot = -12.1592550880626 | etot = -5.62847197052623
848000  ekin = 3.68048960861736 |  erot = 2.74058491305342 | epot = -12.0495464917867 | etot = -5.62847197011596
849000  ekin = 3.59580402250227 |  erot = 2.69795473553872 | epot = -11.9222307276803 | etot = -5.62847196963931
850000  ekin = 3.49561211004087 |  erot = 2.66069826372519 | epot = -11.7847823429158 | etot = -5.62847196914977
851000  ekin = 3.38460421179568 |  erot = 2.63169879060759 | epot = -11.6447749711084 | etot = -5.6284719687051
852000  ekin = 3.2673583464987 |  erot = 2.61319105543684 | epot = -11.5090213702896 | etot = -5.62847196835406
853000  ekin = 3.14792970861676 |  erot = 2.60644046016773 | epot = -11.3828421369105 | etot = -5.62847196812596
854000  ekin = 3.02961721530391 |  erot = 2.61155167759647 | epot = -11.2696408609209 | etot = -5.62847196802053
855000  ekin = 2.91497870693371 |  erot = 2.62749311940629 | epot = -11.1709437943564 | etot = -5.6284719680164
856000  ekin = 2.80592683699299 |  erot = 2.65229723547818 | epot = -11.0866960405453 | etot = -5.62847196807409
857000  ekin = 2.70394323168664 |  erot = 2.68342637145948 | epot = -11.0158415712978 | etot = -5.62847196815163
858000  ekin = 2.61028085084172 |  erot = 2.71820874457969 | epot = -10.9569615636368 | etot = -5.62847196821539
859000  ekin = 2.5260846975062 |  erot = 2.75423459859659 | epot = -10.9087912643506 | etot = -5.62847196824786
860000  ekin = 2.45241725403866 |  erot = 2.78962480104698 | epot = -10.8705140233326 | etot = -5.62847196824695
861000  ekin = 2.39021948391906 |  erot = 2.82313150319564 | epot = -10.8418229553369 | etot = -5.62847196822222
862000  ekin = 2.34025129620196 |  erot = 2.85407946353913 | epot = -10.8228027279308 | etot = -5.62847196818972
863000  ekin = 2.3030418891161 |  erot = 2.8821927760327 | epot = -10.813706633316 | etot = -5.62847196816725
864000  ekin = 2.27886006150838 |  erot = 2.90737073839763 | epot = -10.8147027680758 | etot = -5.62847196816982
865000  ekin = 2.2677019732614 |  erot = 2.92947677440152 | epot = -10.8256507158701 | etot = -5.62847196820715
866000  ekin = 2.26929189385786 |  erot = 2.9481940421252 | epot = -10.8459579042645 | etot = -5.62847196828142
867000  ekin = 2.28309242320817 |  erot = 2.96298089283144 | epot = -10.8745452844255 | etot = -5.62847196838591
868000  ekin = 2.30832281813302 |  erot = 2.97313399075336 | epot = -10.9099287773941 | etot = -5.62847196850772
869000  ekin = 2.34398135276789 |  erot = 2.97793980522783 | epot = -10.9503931266264 | etot = -5.62847196863073
870000  ekin = 2.38886744873948 |  erot = 2.97686809818324 | epot = -10.9942075156636 | etot = -5.62847196874089
871000  ekin = 2.44159861923168 |  erot = 2.9697417543557 | epot = -11.0398123424188 | etot = -5.62847196883139
872000  ekin = 2.50061961724998 |  erot = 2.95681803723053 | epot = -11.0859096233848 | etot = -5.62847196890431
873000  ekin = 2.56420808264695 |  erot = 2.93874614108485 | epot = -11.1314261927011 | etot = -5.62847196896931
874000  ekin = 2.63049127155575 |  erot = 2.91641905849776 | epot = -11.1753822990903 | etot = -5.62847196903676
875000  ekin = 2.69749664584481 |  erot = 2.89079069094168 | epot = -11.2167593058953 | etot = -5.62847196910878
876000  ekin = 2.76325741018864 |  erot = 2.86275138668591 | epot = -11.2544807660487 | etot = -5.62847196917419
877000  ekin = 2.82597857211886 |  erot = 2.83312911742766 | epot = -11.2875796587549 | etot = -5.62847196920841
878000  ekin = 2.88426506180186 |  erot = 2.80282960166257 | epot = -11.3155666325972 | etot = -5.62847196913276
879000  ekin = 2.93899285644416 |  erot = 2.77402557839393 | epot = -11.341490403746 | etot = -5.62847196890793
880000  ekin = 2.99074429632889 |  erot = 2.74904466491057 | epot = -11.3682609301779 | etot = -5.62847196893842
881000  ekin = 3.03734869118486 |  erot = 2.72816458182273 | epot = -11.3939852417845 | etot = -5.62847196877686
882000  ekin = 3.07935286467514 |  erot = 2.71303253609505 | epot = -11.4208573693805 | etot = -5.62847196861028
883000  ekin = 3.1175679722333 |  erot = 2.70517731937095 | epot = -11.451217260081 | etot = -5.62847196847672
884000  ekin = 3.15280252987681 |  erot = 2.70569769692954 | epot = -11.4869721952081 | etot = -5.62847196840179
885000  ekin = 3.18571613345791 |  erot = 2.71504911621222 | epot = -11.5292372180691 | etot = -5.62847196839898
886000  ekin = 3.21676773529604 |  erot = 2.73290580126754 | epot = -11.5781455050366 | etot = -5.62847196847307
887000  ekin = 3.24623562567751 |  erot = 2.75806669149823 | epot = -11.6327742858033 | etot = -5.62847196862756
888000  ekin = 3.27425942157505 |  erot = 2.78837179700644 | epot = -11.6911031874477 | etot = -5.62847196886625
889000  ekin = 3.30086479033733 |  erot = 2.82064068499681 | epot = -11.7499774445212 | etot = -5.62847196918706
890000  ekin = 3.32596925018915 |  erot = 2.85071439959366 | epot = -11.8051556193516 | etot = -5.62847196956878
891000  ekin = 3.3494125338836 |  erot = 2.87373382346787 | epot = -11.8516183273096 | etot = -5.62847196995814
892000  ekin = 3.37107523713622 |  erot = 2.88476437020149 | epot = -11.8843115776056 | etot = -5.62847197026793
893000  ekin = 3.39111185259645 |  erot = 2.87974242635367 | epot = -11.89932624935 | etot = -5.62847197039991
894000  ekin = 3.41023213074035 |  erot = 2.8565082940359 | epot = -11.8952123950614 | etot = -5.62847197028518
895000  ekin = 3.42987731026458 |  erot = 2.81553499401854 | epot = -11.8738842742045 | etot = -5.62847196992138
896000  ekin = 3.45214149133436 |  erot = 2.76001213072434 | epot = -11.8406255914392 | etot = -5.62847196938054
897000  ekin = 3.47941735770732 |  erot = 2.69521466348776 | epot = -11.8031039899743 | etot = -5.62847196877923
898000  ekin = 3.51352962202168 |  erot = 2.6273708674202 | epot = -11.7693724708463 | etot = -5.62847198140439
899000  ekin = 3.48893911617255 |  erot = 2.56291214103832 | epot = -11.6803232266617 | etot = -5.62847196945087
900000  ekin = 3.45535689483593 |  erot = 2.55015985185373 | epot = -11.633988709036 | etot = -5.62847196234632
901000  ekin = 3.50186288275971 |  erot = 2.58894159313692 | epot = -11.7192764516699 | etot = -5.62847197577328
902000  ekin = 3.56610213719051 |  erot = 2.58196928749335 | epot = -11.776543397231 | etot = -5.62847197254716
903000  ekin = 3.62814875931519 |  erot = 2.56232070463762 | epot = -11.8189414368739 | etot = -5.62847197292108
904000  ekin = 3.69112394808169 |  erot = 2.55247638528698 | epot = -11.8720723067768 | etot = -5.62847197340808
905000  ekin = 3.75091280494954 |  erot = 2.5498556977811 | epot = -11.9292404766472 | etot = -5.62847197391659
906000  ekin = 3.80322506628344 |  erot = 2.551912724973 | epot = -11.9836097656 | etot = -5.62847197434353
907000  ekin = 3.84434228797115 |  erot = 2.55683360512733 | epot = -12.0296478677008 | etot = -5.62847197460229
908000  ekin = 3.87190064058632 |  erot = 2.56394104737713 | epot = -12.0643136626144 | etot = -5.62847197465095
909000  ekin = 3.88547927110323 |  erot = 2.57365301130896 | epot = -12.0876042569182 | etot = -5.62847197450599
910000  ekin = 3.88680450615346 |  erot = 2.58702435719518 | epot = -12.1023008375789 | etot = -5.62847197423027
911000  ekin = 3.8795171991301 |  erot = 2.60508796324371 | epot = -12.1130771362784 | etot = -5.62847197390461
912000  ekin = 3.86859233313187 |  erot = 2.62827701409143 | epot = -12.1253413208272 | etot = -5.62847197360393
913000  ekin = 3.8595591296454 |  erot = 2.65612234990324 | epot = -12.1441534529339 | etot = -5.62847197338531
914000  ekin = 3.85765974061285 |  erot = 2.68725904843784 | epot = -12.1733907617312 | etot = -5.62847197268045
915000  ekin = 3.86988558914148 |  erot = 2.72155496068401 | epot = -12.2199125226814 | etot = -5.62847197285592
916000  ekin = 3.89721211219155 |  erot = 2.75899199892053 | epot = -12.2846760843736 | etot = -5.62847197326152
917000  ekin = 3.93597306532141 |  erot = 2.79756616825859 | epot = -12.3620112072813 | etot = -5.62847197370129
918000  ekin = 3.98211349997584 |  erot = 2.83523644160486 | epot = -12.4458219157274 | etot = -5.62847197414674
919000  ekin = 4.03109884805537 |  erot = 2.8693998348043 | epot = -12.528970658437 | etot = -5.6284719755773
920000  ekin = 4.07575007521382 |  erot = 2.89203459576729 | epot = -12.5962566468764 | etot = -5.62847197589532
921000  ekin = 4.11121320967635 |  erot = 2.89963706163751 | epot = -12.6393222479484 | etot = -5.62847197663455
922000  ekin = 4.12946329942979 |  erot = 2.89101491578883 | epot = -12.6489501921248 | etot = -5.62847197690616
923000  ekin = 4.12574552395298 |  erot = 2.86656720218293 | epot = -12.6207847030272 | etot = -5.62847197689134
924000  ekin = 4.09806256347913 |  erot = 2.82817437033121 | epot = -12.5547089104387 | etot = -5.62847197662837
925000  ekin = 4.04683813551371 |  erot = 2.77889165990323 | epot = -12.4542017716331 | etot = -5.62847197621619
926000  ekin = 3.97415981128859 |  erot = 2.7224048534807 | epot = -12.3250366405305 | etot = -5.62847197576117
927000  ekin = 3.88290109712332 |  erot = 2.66247239165605 | epot = -12.1738454641043 | etot = -5.62847197532497
928000  ekin = 3.77619172560492 |  erot = 2.6025819679697 | epot = -12.0072456684795 | etot = -5.62847197490488
929000  ekin = 3.65741733799584 |  erot = 2.54590495803763 | epot = -11.8317942704903 | etot = -5.62847197445684
930000  ekin = 3.53056331157745 |  erot = 2.49545262967047 | epot = -11.6544879151862 | etot = -5.62847197393828
931000  ekin = 3.40054525644784 |  erot = 2.45429284413195 | epot = -11.4833100736075 | etot = -5.62847197302775
932000  ekin = 3.273513070288 |  erot = 2.42812142468305 | epot = -11.3301064676002 | etot = -5.6284719726292
933000  ekin = 3.15479412543164 |  erot = 2.42017428458158 | epot = -11.2034403822402 | etot = -5.62847197222694
934000  ekin = 3.04934556962316 |  erot = 2.43124949582192 | epot = -11.1090670373197 | etot = -5.62847197187461
935000  ekin = 2.9617838251345 |  erot = 2.4616517146526 | epot = -11.0519075114036 | etot = -5.62847197161651
936000  ekin = 2.8958126921904 |  erot = 2.51113391187266 | epot = -11.0354185755412 | etot = -5.62847197147812
937000  ekin = 2.8538587939522 |  erot = 2.57889786118384 | epot = -11.0612286266004 | etot = -5.62847197146439
938000  ekin = 2.83694342931972 |  erot = 2.66364816314071 | epot = -11.1290635640244 | etot = -5.62847197156395
939000  ekin = 2.84476696228062 |  erot = 2.76369076885477 | epot = -11.2369297028871 | etot = -5.6284719717517
940000  ekin = 2.87595320515977 |  erot = 2.87707538091412 | epot = -11.3815005580672 | etot = -5.6284719719933
941000  ekin = 2.92838858234329 |  erot = 3.00178159973276 | epot = -11.5586421543264 | etot = -5.6284719722504
942000  ekin = 2.99958691600987 |  erot = 3.13593595749975 | epot = -11.7639948459969 | etot = -5.62847197248725
943000  ekin = 3.08701486219669 |  erot = 3.27802584305068 | epot = -11.9935126779257 | etot = -5.62847197267829
944000  ekin = 3.18658687341822 |  erot = 3.42629435965654 | epot = -12.2413532069618 | etot = -5.62847197388699
945000  ekin = 3.29120912283716 |  erot = 3.57701253610262 | epot = -12.4966936333469 | etot = -5.62847197440708
946000  ekin = 3.3962121753005 |  erot = 3.72637389498335 | epot = -12.7510580452842 | etot = -5.62847197500039
947000  ekin = 3.49687303188501 |  erot = 3.86977321217521 | epot = -12.9951182197511 | etot = -5.62847197569089
948000  ekin = 3.58827211276185 |  erot = 4.00151346884024 | epot = -13.2182575580825 | etot = -5.62847197648036
949000  ekin = 3.66536645456775 |  erot = 4.11475106060365 | epot = -13.4085894925039 | etot = -5.6284719773325
950000  ekin = 3.72323941904745 |  erot = 4.2018019165406 | epot = -13.5535133137538 | etot = -5.62847197816578
951000  ekin = 3.75754185507172 |  erot = 4.25489778051608 | epot = -13.6409116144466 | etot = -5.62847197885879
952000  ekin = 3.76507381426932 |  erot = 4.26734583334794 | epot = -13.6608916268915 | etot = -5.62847197927423
953000  ekin = 3.74438822074375 |  erot = 4.23487585125703 | epot = -13.6077360512955 | etot = -5.6284719792947
954000  ekin = 3.69625242587789 |  erot = 4.15681814936671 | epot = -13.4815425541076 | etot = -5.62847197886298
955000  ekin = 3.62380419829995 |  erot = 4.03673171247084 | epot = -13.2890078887769 | etot = -5.62847197800616
956000  ekin = 3.52555336207499 |  erot = 3.88073804669572 | epot = -13.0347633884069 | etot = -5.6284719796362
957000  ekin = 3.39894638463157 |  erot = 3.70474137262662 | epot = -12.7321597318367 | etot = -5.62847197457853
958000  ekin = 3.27782878891856 |  erot = 3.53760736928944 | epot = -12.4439081311635 | etot = -5.62847197295551
959000  ekin = 3.17835028162985 |  erot = 3.38602207368368 | epot = -12.1928443301229 | etot = -5.62847197480939
960000  ekin = 3.09019087423874 |  erot = 3.23509493162294 | epot = -11.9537577823123 | etot = -5.62847197645059
961000  ekin = 3.0042625884689 |  erot = 3.08248133241759 | epot = -11.7152158964302 | etot = -5.62847197554371
962000  ekin = 2.92693479507624 |  erot = 2.94805480586762 | epot = -11.5034615762741 | etot = -5.62847197533026
963000  ekin = 2.85972055240555 |  erot = 2.83488454315015 | epot = -11.3230770705803 | etot = -5.62847197502459
964000  ekin = 2.80427359137752 |  erot = 2.74583972988029 | epot = -11.1785852961036 | etot = -5.62847197484581
965000  ekin = 2.76170821783638 |  erot = 2.68249826039867 | epot = -11.072678453027 | etot = -5.62847197479194
966000  ekin = 2.73254763717717 |  erot = 2.64503832974239 | epot = -11.0060579417898 | etot = -5.62847197487026
967000  ekin = 2.71665521996136 |  erot = 2.63218922382731 | epot = -10.9773164188746 | etot = -5.62847197508591
968000  ekin = 2.71315992418815 |  erot = 2.64124364245036 | epot = -10.9828755420638 | etot = -5.62847197542529
969000  ekin = 2.72046614653953 |  erot = 2.66825860729415 | epot = -11.0171967296843 | etot = -5.62847197585063
970000  ekin = 2.73639579065799 |  erot = 2.70848274236216 | epot = -11.073350509328 | etot = -5.62847197630787
971000  ekin = 2.75849383315842 |  erot = 2.75695664300851 | epot = -11.143922452824 | etot = -5.6284719766571
972000  ekin = 2.78540546476289 |  erot = 2.80984083861889 | epot = -11.2237182803115 | etot = -5.62847197692968
973000  ekin = 2.81581409089934 |  erot = 2.8641270486568 | epot = -11.3084131166704 | etot = -5.62847197711427
974000  ekin = 2.848479952898 |  erot = 2.91762904383459 | epot = -11.3945809739371 | etot = -5.62847197720449
975000  ekin = 2.88260770953166 |  erot = 2.9692077428972 | epot = -11.4802874296312 | etot = -5.62847197720234
976000  ekin = 2.90702473411811 |  erot = 3.01964919234353 | epot = -11.5551459280456 | etot = -5.62847200158394
977000  ekin = 2.82994036143198 |  erot = 3.10467596391026 | epot = -11.5630883031892 | etot = -5.62847197784697
978000  ekin = 2.82908362166165 |  erot = 3.22546639450917 | epot = -11.6830220198858 | etot = -5.62847200371499
979000  ekin = 2.83706100057074 |  erot = 3.25481872936462 | epot = -11.7203517199999 | etot = -5.62847199006455
980000  ekin = 2.83601345066599 |  erot = 3.27042511422119 | epot = -11.734910554987 | etot = -5.62847199009982
981000  ekin = 2.82679467431091 |  erot = 3.27908745911295 | epot = -11.7343541235652 | etot = -5.62847199014129
982000  ekin = 2.80889456991165 |  erot = 3.28090658161893 | epot = -11.7182731417163 | etot = -5.62847199018569
983000  ekin = 2.78208898545212 |  erot = 3.27578646937806 | epot = -11.6863474450419 | etot = -5.62847199021175
984000  ekin = 2.74660136772302 |  erot = 3.26353952149007 | epot = -11.638612879398 | etot = -5.62847199018497
985000  ekin = 2.70333214299662 |  erot = 3.24411390730093 | epot = -11.5759180403656 | etot = -5.62847199006807
986000  ekin = 2.6540891260522 |  erot = 3.21786526178938 | epot = -11.5004263776756 | etot = -5.62847198983401
987000  ekin = 2.57871632998228 |  erot = 3.17247279279127 | epot = -11.3796611170866 | etot = -5.62847199431302
988000  ekin = 2.53018925220753 |  erot = 3.15315339370793 | epot = -11.3118146478466 | etot = -5.6284720019311
989000  ekin = 2.49566277851641 |  erot = 3.12952117030807 | epot = -11.253655940757 | etot = -5.6284719919325
990000  ekin = 2.46227182135109 |  erot = 3.0974175741939 | epot = -11.1881613869226 | etot = -5.62847199137759
991000  ekin = 2.44592298875133 |  erot = 3.07158094654537 | epot = -11.1459759264116 | etot = -5.62847199111487
992000  ekin = 2.45174281200906 |  erot = 3.0561104812672 | epot = -11.136325284191 | etot = -5.62847199091474
993000  ekin = 2.48099671337478 |  erot = 3.05281517839835 | epot = -11.1622838825343 | etot = -5.62847199076114
994000  ekin = 2.53415669916956 |  erot = 3.06359154115075 | epot = -11.2262202309957 | etot = -5.6284719906754
995000  ekin = 2.61088853027053 |  erot = 3.09015398316477 | epot = -11.3295145041026 | etot = -5.62847199066731
996000  ekin = 2.7101181945856 |  erot = 3.1337829849552 | epot = -11.4723731702797 | etot = -5.62847199073888
997000  ekin = 2.83015603103842 |  erot = 3.19515267539753 | epot = -11.6537806973256 | etot = -5.62847199088961
998000  ekin = 2.96878571508875 |  erot = 3.27423191211665 | epot = -11.8714896183342 | etot = -5.62847199112875
999000  ekin = 3.12322522605457 |  erot = 3.37022004604656 | epot = -12.1219172635839 | etot = -5.62847199148273
1000000  ekin = 3.28990650559737 |  erot = 3.48146010617805 | epot = -12.3998386037702 | etot = -5.62847199199478
   1000000   0.14621807    -0.83009398     0.055104069   -0.56937076     4.8223733e-05  64000        
Loop time of 19.0918 on 1 procs for 1000000 steps with 16 atoms

Performance: 45254.941 tau/day, 52378.404 timesteps/s, 838.054 katom-step/s
99.4% CPU use with 1 MPI tasks x no OpenMP threads

MPI task timing breakdown:
Section |  min time  |  avg time  |  max time  |%varavg| %total
---------------------------------------------------------------
Pair    | 15.878     | 15.878     | 15.878     |   0.0 | 83.17
Bond    | 0.82999    | 0.82999    | 0.82999    |   0.0 |  4.35
Neigh   | 0.009773   | 0.009773   | 0.009773   |   0.0 |  0.05
Comm    | 0.29639    | 0.29639    | 0.29639    |   0.0 |  1.55
Output  | 0.16011    | 0.16011    | 0.16011    |   0.0 |  0.84
Modify  | 1.573      | 1.573      | 1.573      |   0.0 |  8.24
Other   |            | 0.3443     |            |       |  1.80

Nlocal:             16 ave          16 max          16 min
Histogram: 1 0 0 0 0 0 0 0 0 0
Nghost:              0 ave           0 max           0 min
Histogram: 1 0 0 0 0 0 0 0 0 0
Neighs:            106 ave         106 max         106 min
Histogram: 1 0 0 0 0 0 0 0 0 0

Total # of neighbors = 106
Ave neighs/atom = 6.625
Ave special neighs/atom = 3.75
Neighbor list builds = 1000
Dangerous builds = 0

write_data last_config.${number}.* nocoeff
write_data last_config.2.* nocoeff
System init for write_data ...
Generated 0 of 6 mixed pair_coeff terms from geometric mixing rule
#write_restart last_config.${number}.*
Total wall time: 0:00:19
