LAMMPS (2 Apr 2025)
variable number	equal 2
variable ofreq	equal 1000
variable efreq	equal 1000
variable T      equal 0.1
variable rhos   equal 0.5

units lj

dimension 3

newton on

boundary  p p p

atom_style hybrid bond ellipsoid oxdna
WARNING: Atom style hybrid defines both, per-type and per-atom masses; both must be set, but only per-atom masses will be used (../atom_vec_hybrid.cpp:132)
atom_modify sort 0 1.0

# Pair interactions require lists of neighbours to be calculated
neighbor 2.0 bin
neigh_modify every 1 delay 0 check yes

read_data data.duplex2
Reading data file ...
  orthogonal box = (-20 -20 -20) to (20 20 20)
  1 by 2 by 2 MPI processor grid
  reading atoms ...
  16 atoms
  reading velocities ...
  16 velocities
  scanning bonds ...
  1 = max bonds/atom
  16 ellipsoids
  orthogonal box = (-20 -20 -20) to (20 20 20)
  1 by 2 by 2 MPI processor grid
  reading bonds ...
  13 bonds
Finding 1-2 1-3 1-4 neighbors ...
  special bond factors lj:    0        0        0       
  special bond factors coul:  0        0        0       
     2 = max # of 1-2 neighbors
     2 = max # of 1-3 neighbors
     4 = max # of 1-4 neighbors
     6 = max # of special neighbors
  special bonds CPU = 0.001 seconds
  read_data CPU = 0.005 seconds

set atom * mass 3.1575
Setting atom values ...
  16 settings made for mass

group all type 1 4
16 atoms in group all

# oxRNA2 bond interactions - FENE backbone
bond_style oxrna2/fene
bond_coeff * 2.0 0.25 0.761070781051
special_bonds lj 0 1 1
Finding 1-2 1-3 1-4 neighbors ...
  special bond factors lj:    0        1        1       
  special bond factors coul:  0        0        0       
     2 = max # of 1-2 neighbors
     2 = max # of 1-3 neighbors
     4 = max # of 1-4 neighbors
     6 = max # of special neighbors
  special bonds CPU = 0.000 seconds

# oxRNA2 pair interactions
pair_style hybrid/overlay oxrna2/excv oxrna2/stk oxrna2/hbond oxrna2/xstk oxrna2/coaxstk oxrna2/dh
pair_coeff * * oxrna2/excv    2.0 0.7 0.675 2.0 0.515 0.5 2.0 0.33 0.32
pair_coeff * * oxrna2/stk     seqdep ${T} 1.40206 2.77 6.0 0.43 0.93 0.35 0.78 0.9 0 0.95 0.9 0 0.95 1.3 0 0.8 1.3 0 0.8 2.0 0.65 2.0 0.65
pair_coeff * * oxrna2/stk     seqdep 0.1 1.40206 2.77 6.0 0.43 0.93 0.35 0.78 0.9 0 0.95 0.9 0 0.95 1.3 0 0.8 1.3 0 0.8 2.0 0.65 2.0 0.65
pair_coeff * * oxrna2/hbond   seqdep 0.0 8.0 0.4 0.75 0.34 0.7 1.5 0 0.7 1.5 0 0.7 1.5 0 0.7 0.46 3.141592653589793 0.7 4.0 1.5707963267948966 0.45 4.0 1.5707963267948966 0.45
pair_coeff 1 4 oxrna2/hbond   seqdep 0.870439 8.0 0.4 0.75 0.34 0.7 1.5 0 0.7 1.5 0 0.7 1.5 0 0.7 0.46 3.141592653589793 0.7 4.0 1.5707963267948966 0.45 4.0 1.5707963267948966 0.45
pair_coeff 2 3 oxrna2/hbond   seqdep 0.870439 8.0 0.4 0.75 0.34 0.7 1.5 0 0.7 1.5 0 0.7 1.5 0 0.7 0.46 3.141592653589793 0.7 4.0 1.5707963267948966 0.45 4.0 1.5707963267948966 0.45
pair_coeff 3 4 oxrna2/hbond   seqdep 0.870439 8.0 0.4 0.75 0.34 0.7 1.5 0 0.7 1.5 0 0.7 1.5 0 0.7 0.46 3.141592653589793 0.7 4.0 1.5707963267948966 0.45 4.0 1.5707963267948966 0.45
pair_coeff * * oxrna2/xstk    59.9626 0.5 0.6 0.42 0.58 2.25 0.505 0.58 1.7 1.266 0.68 1.7 1.266 0.68 1.7 0.309 0.68 1.7 0.309 0.68
pair_coeff * * oxrna2/coaxstk 80 0.5 0.6 0.42 0.58 2.0 2.592 0.65 1.3 0.151 0.8 0.9 0.685 0.95 0.9 0.685 0.95 2.0 -0.65 2.0 -0.65
pair_coeff * * oxrna2/dh      ${T} ${rhos} 1.02455
pair_coeff * * oxrna2/dh      0.1 ${rhos} 1.02455
pair_coeff * * oxrna2/dh      0.1 0.5 1.02455

# NVE ensemble
fix 1 all nve/asphere
#fix 2 all langevin ${T} ${T} 2.5 457145 angmom 10

timestep 1e-5

#comm_style tiled
fix 3 all balance 1000 1.03 shift xyz 10 1.03
comm_modify cutoff 3.8

compute quat all property/atom quatw quati quatj quatk

compute erot all erotate/asphere
compute ekin all ke
compute epot all pe
variable erot equal c_erot
variable ekin equal c_ekin
variable epot equal c_epot
variable etot equal c_erot+c_ekin+c_epot
fix 5 all print ${efreq} "$(step)  ekin = ${ekin} |  erot = ${erot} | epot = ${epot} | etot = ${etot}" screen yes
fix 5 all print 1000 "$(step)  ekin = ${ekin} |  erot = ${erot} | epot = ${epot} | etot = ${etot}" screen yes

dump out all custom ${ofreq} out.${number}.lammpstrj id mol type x y z ix iy iz vx vy vz c_quat[1] c_quat[2] c_quat[3] c_quat[4] angmomx angmomy angmomz
dump out all custom 1000 out.${number}.lammpstrj id mol type x y z ix iy iz vx vy vz c_quat[1] c_quat[2] c_quat[3] c_quat[4] angmomx angmomy angmomz
dump out all custom 1000 out.2.lammpstrj id mol type x y z ix iy iz vx vy vz c_quat[1] c_quat[2] c_quat[3] c_quat[4] angmomx angmomy angmomz
dump_modify out sort id
dump_modify out format line "%d %d %d  %22.15le %22.15le %22.15le  %d %d %d  %22.15le %22.15le %22.15le  %22.15le %22.15le %22.15le %22.15le  %22.15le %22.15le %22.15le"

run 1000000
Generated 0 of 6 mixed pair_coeff terms from geometric mixing rule
Neighbor list info ...
  update: every = 1 steps, delay = 0 steps, check = yes
  max neighbors/atom: 2000, page size: 100000
  master list distance cutoff = 4.3014979
  ghost atom cutoff = 4.3014979
  binsize = 2.150749, bins = 19 19 19
  5 neighbor lists, perpetual/occasional/extra = 5 0 0
  (1) pair oxrna2/excv, perpetual
      attributes: half, newton on
      pair build: half/bin/newton
      stencil: half/bin/3d
      bin: standard
  (2) pair oxrna2/hbond, perpetual, copy from (1)
      attributes: half, newton on
      pair build: copy
      stencil: none
      bin: none
  (3) pair oxrna2/xstk, perpetual, copy from (1)
      attributes: half, newton on
      pair build: copy
      stencil: none
      bin: none
  (4) pair oxrna2/coaxstk, perpetual, copy from (1)
      attributes: half, newton on
      pair build: copy
      stencil: none
      bin: none
  (5) pair oxrna2/dh, perpetual, copy from (1)
      attributes: half, newton on
      pair build: copy
      stencil: none
      bin: none
WARNING: Communication cutoff adjusted to 4.301497916929199 (../comm.cpp:753)
0  ekin = 2.70475393009871 |  erot = 2.80172072918779 | epot = -11.1349465280232 | etot = -5.62847186873667
Per MPI rank memory allocation (min/avg/max) = 7.639 | 7.668 | 7.753 Mbytes
   Step          Temp          E_pair         E_mol          TotEng         Press          Volume    
         0   0.12021129    -0.7299505      0.034016337   -0.52688704     5.1214421e-05  64000        
1000  ekin = 2.74425239815417 |  erot = 2.79065458610893 | epot = -11.1633788526891 | etot = -5.62847186842597
2000  ekin = 2.78841691867035 |  erot = 2.77992540099535 | epot = -11.196814187725 | etot = -5.62847186805934
3000  ekin = 2.83938215410022 |  erot = 2.77185117591642 | epot = -11.2397051978034 | etot = -5.62847186778672
4000  ekin = 2.89876217830263 |  erot = 2.76816783884241 | epot = -11.295401884792 | etot = -5.62847186764697
5000  ekin = 2.96742170720769 |  erot = 2.76919345829435 | epot = -11.3650870331989 | etot = -5.6284718676969
6000  ekin = 3.0456300737104 |  erot = 2.77376672268248 | epot = -11.4478686641706 | etot = -5.62847186777772
7000  ekin = 3.13407886898538 |  erot = 2.78065913591456 | epot = -11.5432098726294 | etot = -5.62847186772941
8000  ekin = 3.23400863287743 |  erot = 2.78938863934857 | epot = -11.651869139893 | etot = -5.62847186766698
9000  ekin = 3.34625998930258 |  erot = 2.80019523753784 | epot = -11.7749270943235 | etot = -5.62847186748304
10000  ekin = 3.47220350616334 |  erot = 2.81464622815282 | epot = -11.9153216015116 | etot = -5.62847186719547
11000  ekin = 3.61341090096018 |  erot = 2.83541090219849 | epot = -12.0772936703879 | etot = -5.62847186722921
12000  ekin = 3.76971728921062 |  erot = 2.8651661044909 | epot = -12.2633552607299 | etot = -5.62847186702841
13000  ekin = 3.94105577714467 |  erot = 2.90597306806357 | epot = -12.4755007121566 | etot = -5.62847186694841
14000  ekin = 4.12730744896757 |  erot = 2.95952862137382 | epot = -12.7153079373024 | etot = -5.62847186696104
15000  ekin = 4.32776706381549 |  erot = 3.02701108512252 | epot = -12.9832500158854 | etot = -5.6284718669474
16000  ekin = 4.54139695680682 |  erot = 3.10924468066179 | epot = -13.2791135046205 | etot = -5.6284718671519
17000  ekin = 4.76575661763819 |  erot = 3.20604355373093 | epot = -13.60027203892 | etot = -5.6284718675509
18000  ekin = 4.99700491214679 |  erot = 3.31611869568267 | epot = -13.9415954758898 | etot = -5.62847186806037
19000  ekin = 5.23048108112184 |  erot = 3.43700077146761 | epot = -14.2959537213472 | etot = -5.62847186875777
20000  ekin = 5.46074742513049 |  erot = 3.56463156086403 | epot = -14.6538508556014 | etot = -5.62847186960687
21000  ekin = 5.68087058007124 |  erot = 3.69256776681713 | epot = -15.001910217923 | etot = -5.62847187103459
22000  ekin = 5.88327619983864 |  erot = 3.81252322503554 | epot = -15.3242712967754 | etot = -5.62847187190122
23000  ekin = 6.06249979951974 |  erot = 3.91720950057667 | epot = -15.6081811728145 | etot = -5.62847187271809
24000  ekin = 6.2144971237742 |  erot = 4.00104081543177 | epot = -15.8440098121102 | etot = -5.62847187290425
25000  ekin = 6.33853277809237 |  erot = 4.06184542619877 | epot = -16.0288500769827 | etot = -5.62847187269153
26000  ekin = 6.43627737186994 |  erot = 4.1007627843084 | epot = -16.1655120283937 | etot = -5.62847187221534
27000  ekin = 6.51092447972011 |  erot = 4.12134483746807 | epot = -16.260741188824 | etot = -5.62847187163587
28000  ekin = 6.56622100976668 |  erot = 4.12827111510816 | epot = -16.3229639959507 | etot = -5.62847187107583
29000  ekin = 6.60587340002382 |  erot = 4.12622173833902 | epot = -16.3605670089492 | etot = -5.62847187058635
30000  ekin = 6.63335580501819 |  erot = 4.11921545444657 | epot = -16.3810431296794 | etot = -5.62847187021461
31000  ekin = 6.65211888589264 |  erot = 4.10999678317537 | epot = -16.3905875389833 | etot = -5.62847186991529
32000  ekin = 6.66584763664867 |  erot = 4.10024297795108 | epot = -16.3945624842073 | etot = -5.6284718696075
33000  ekin = 6.67923227191025 |  erot = 4.09129207413375 | epot = -16.3989962152631 | etot = -5.62847186921908
34000  ekin = 6.69756137216828 |  erot = 4.08414768607673 | epot = -16.4101809271347 | etot = -5.62847186888965
35000  ekin = 6.72589628312077 |  erot = 4.07950228497956 | epot = -16.4338704366878 | etot = -5.62847186858748
36000  ekin = 6.76908557113709 |  erot = 4.07778615492116 | epot = -16.4753435944361 | etot = -5.62847186837789
37000  ekin = 6.83097506213397 |  erot = 4.0789901404067 | epot = -16.5384370708782 | etot = -5.6284718683375
38000  ekin = 6.91354703253165 |  erot = 4.08242106390422 | epot = -16.6244399649596 | etot = -5.62847186852375
39000  ekin = 7.01626065739826 |  erot = 4.08652171942789 | epot = -16.7312542457771 | etot = -5.62847186895093
40000  ekin = 7.13573792258323 |  erot = 4.08884404540008 | epot = -16.8530538375758 | etot = -5.62847186959252
41000  ekin = 7.26614194134508 |  erot = 4.0862704253777 | epot = -16.9808842370343 | etot = -5.62847187031148
42000  ekin = 7.40051154120582 |  erot = 4.07546023443106 | epot = -17.1044436466275 | etot = -5.62847187099063
43000  ekin = 7.53157437143684 |  erot = 4.05344655359644 | epot = -17.2134927965847 | etot = -5.62847187155142
44000  ekin = 7.65268317567639 |  erot = 4.01819177227238 | epot = -17.2993468198232 | etot = -5.62847187187439
45000  ekin = 7.75845343306883 |  erot = 3.96898510895778 | epot = -17.3559104142063 | etot = -5.62847187217967
46000  ekin = 7.84504377034637 |  erot = 3.90454903064799 | epot = -17.3780646733316 | etot = -5.62847187233721
47000  ekin = 7.91002390820629 |  erot = 3.82478596555201 | epot = -17.3632817459105 | etot = -5.6284718721522
48000  ekin = 7.95195705456509 |  erot = 3.73154439390008 | epot = -17.3119733204126 | etot = -5.62847187194739
49000  ekin = 7.97001825706875 |  erot = 3.62752007295045 | epot = -17.2260102016183 | etot = -5.62847187159913
50000  ekin = 7.96375756700443 |  erot = 3.51726958365106 | epot = -17.109499021545 | etot = -5.62847187088951
51000  ekin = 7.93280761300459 |  erot = 3.40827188497834 | epot = -16.969551368803 | etot = -5.62847187082003
52000  ekin = 7.87656811744218 |  erot = 3.30207418532531 | epot = -16.8071141735586 | etot = -5.62847187079112
53000  ekin = 7.7953101254194 |  erot = 3.19839984815408 | epot = -16.6221818441149 | etot = -5.6284718705414
54000  ekin = 7.68952609570372 |  erot = 3.09980185481816 | epot = -16.4177998208248 | etot = -5.62847187030293
55000  ekin = 7.55966222141138 |  erot = 3.0089742698953 | epot = -16.1971083614503 | etot = -5.62847187014359
56000  ekin = 7.40594124508046 |  erot = 2.92802865182255 | epot = -15.9624417669777 | etot = -5.6284718700747
57000  ekin = 7.22816598142038 |  erot = 2.85836584281789 | epot = -15.7150036943485 | etot = -5.62847187011026
58000  ekin = 7.02573051397655 |  erot = 2.80066522322032 | epot = -15.45486760742 | etot = -5.62847187022309
59000  ekin = 6.80455077165167 |  erot = 2.75651944712027 | epot = -15.189542086097 | etot = -5.62847186732507
60000  ekin = 6.57760251691559 |  erot = 2.72731501678729 | epot = -14.9333893991698 | etot = -5.6284718654669
61000  ekin = 5.99884053190178 |  erot = 2.65010269791715 | epot = -14.2774150331166 | etot = -5.62847180329769
62000  ekin = 5.82217958652134 |  erot = 2.65058478195153 | epot = -14.1012361774593 | etot = -5.62847180898639
63000  ekin = 6.00993174210288 |  erot = 2.7114348346641 | epot = -14.3498384845185 | etot = -5.62847190775155
64000  ekin = 5.85096985050407 |  erot = 2.7117391762472 | epot = -14.1911809366075 | etot = -5.62847190985627
65000  ekin = 5.67959801442774 |  erot = 2.70731630130151 | epot = -14.0153862253963 | etot = -5.6284719096671
66000  ekin = 5.49812382731746 |  erot = 2.69646895132494 | epot = -13.8230646880631 | etot = -5.6284719094207
67000  ekin = 5.31011188753188 |  erot = 2.67901331172386 | epot = -13.6175971082582 | etot = -5.62847190900247
68000  ekin = 5.11964229582632 |  erot = 2.65622197273399 | epot = -13.4043361770525 | etot = -5.62847190849222
69000  ekin = 4.93067975207896 |  erot = 2.63014135225688 | epot = -13.1892930124927 | etot = -5.62847190815682
70000  ekin = 4.74697386617529 |  erot = 2.60347312706298 | epot = -12.9789189008748 | etot = -5.6284719076365
71000  ekin = 4.57222133259612 |  erot = 2.5797158979892 | epot = -12.7804091377441 | etot = -5.6284719071588
72000  ekin = 4.40959648507828 |  erot = 2.5622829592248 | epot = -12.6003513510613 | etot = -5.62847190675819
73000  ekin = 4.26170009573951 |  erot = 2.55406076080097 | epot = -12.4442327629945 | etot = -5.62847190645404
74000  ekin = 4.13052949790866 |  erot = 2.55713155841151 | epot = -12.3161329625862 | etot = -5.62847190626607
75000  ekin = 4.01588192828906 |  erot = 2.56608801433985 | epot = -12.2104419139886 | etot = -5.62847197135972
76000  ekin = 3.95904625854938 |  erot = 2.44184942385921 | epot = -12.0293675901714 | etot = -5.62847190776285
77000  ekin = 4.02755960266379 |  erot = 2.46007159499026 | epot = -12.1161031098036 | etot = -5.62847191214956
78000  ekin = 3.98785439943829 |  erot = 2.49596945534582 | epot = -12.1122957670962 | etot = -5.62847191231213
79000  ekin = 3.96575767721439 |  erot = 2.54200842335434 | epot = -12.1362380131151 | etot = -5.62847191254632
80000  ekin = 3.95961954869563 |  erot = 2.59604589435578 | epot = -12.1841373558845 | etot = -5.62847191283314
81000  ekin = 3.96734100032347 |  erot = 2.65577062232335 | epot = -12.2515835357814 | etot = -5.62847191313455
82000  ekin = 3.98651997822121 |  erot = 2.71892569307068 | epot = -12.3339175847226 | etot = -5.62847191343069
83000  ekin = 4.01459300302737 |  erot = 2.78352190390182 | epot = -12.4265868206355 | etot = -5.62847191370634
84000  ekin = 4.04956210608538 |  erot = 2.84796629664401 | epot = -12.5260003165339 | etot = -5.62847191380456
85000  ekin = 4.09049341026845 |  erot = 2.91104365381081 | epot = -12.6300089781173 | etot = -5.62847191403808
86000  ekin = 4.13484812560019 |  erot = 2.97201165419065 | epot = -12.7353316940195 | etot = -5.62847191422866
87000  ekin = 4.18003829184615 |  erot = 3.03078479878256 | epot = -12.8392950049943 | etot = -5.62847191436563
88000  ekin = 4.22360704724691 |  erot = 3.08796574000287 | epot = -12.940044701699 | etot = -5.62847191444922
89000  ekin = 4.26326024607271 |  erot = 3.14481288279442 | epot = -13.0365450433345 | etot = -5.62847191446736
90000  ekin = 4.29588111790557 |  erot = 3.20341713776963 | epot = -13.1277701703284 | etot = -5.62847191465325
91000  ekin = 4.31697784577748 |  erot = 3.26736040230098 | epot = -13.212810162644 | etot = -5.62847191456558
92000  ekin = 4.32507837347508 |  erot = 3.33931601944495 | epot = -13.2928663075884 | etot = -5.62847191466832
93000  ekin = 4.31872212432123 |  erot = 3.42036541916705 | epot = -13.367559458176 | etot = -5.62847191468772
94000  ekin = 4.29660005793217 |  erot = 3.51205694754324 | epot = -13.437128920152 | etot = -5.62847191467662
95000  ekin = 4.25789021838766 |  erot = 3.61606475666755 | epot = -13.502426889665 | etot = -5.62847191460975
96000  ekin = 4.20253661926425 |  erot = 3.73412422729569 | epot = -13.5651327610291 | etot = -5.62847191446914
97000  ekin = 4.13146529059943 |  erot = 3.86803037439198 | epot = -13.6279675793396 | etot = -5.62847191434817
98000  ekin = 4.04669071975282 |  erot = 4.01885670334626 | epot = -13.694019337193 | etot = -5.62847191409397
99000  ekin = 3.95128630061827 |  erot = 4.18772840013356 | epot = -13.7674866145604 | etot = -5.62847191380852
100000  ekin = 3.84921784882991 |  erot = 4.37558821791171 | epot = -13.8532779802852 | etot = -5.62847191354356
101000  ekin = 3.74501223923216 |  erot = 4.5825842923168 | epot = -13.9560684449123 | etot = -5.62847191336336
102000  ekin = 3.64330024870481 |  erot = 4.80764134110016 | epot = -14.0794135031352 | etot = -5.62847191333023
103000  ekin = 3.54831662006182 |  erot = 5.04811575607456 | epot = -14.2249042896154 | etot = -5.62847191347901
104000  ekin = 3.46349772064832 |  erot = 5.29960820358419 | epot = -14.3915778382016 | etot = -5.62847191396913
105000  ekin = 3.39136254536159 |  erot = 5.55507704359975 | epot = -14.5749115034232 | etot = -5.62847191446184
106000  ekin = 3.3335640374429 |  erot = 5.8071875932494 | epot = -14.7692235454822 | etot = -5.62847191478987
107000  ekin = 3.29209861353572 |  erot = 6.0490668738677 | epot = -14.9696374027436 | etot = -5.62847191534023
108000  ekin = 3.26748487340969 |  erot = 6.27418243659735 | epot = -15.1701392258611 | etot = -5.62847191585411
109000  ekin = 3.25930506886454 |  erot = 6.47585417244351 | epot = -15.3636311580673 | etot = -5.6284719167592
110000  ekin = 3.26568272828942 |  erot = 6.64602097207954 | epot = -15.5401756176964 | etot = -5.62847191732746
111000  ekin = 3.28520059172453 |  erot = 6.77857539600345 | epot = -15.6922479055244 | etot = -5.62847191779644
112000  ekin = 3.31659315707258 |  erot = 6.86862760563955 | epot = -15.8136926809221 | etot = -5.62847191820999
113000  ekin = 3.35860144230749 |  erot = 6.91335224014805 | epot = -15.9004256006543 | etot = -5.62847191819873
114000  ekin = 3.41073468124489 |  erot = 6.91406610981165 | epot = -15.9532727088306 | etot = -5.62847191777405
115000  ekin = 3.47381531534087 |  erot = 6.87643065686347 | epot = -15.9787178894041 | etot = -5.62847191719974
116000  ekin = 3.54886437558585 |  erot = 6.80711139529058 | epot = -15.9844476879546 | etot = -5.62847191707822
117000  ekin = 3.63467409204767 |  erot = 6.71320827683533 | epot = -15.9763542854599 | etot = -5.62847191657687
118000  ekin = 3.72815555523393 |  erot = 6.60276001485528 | epot = -15.9593874864237 | etot = -5.62847191633445
119000  ekin = 3.82420980363775 |  erot = 6.48288858478245 | epot = -15.9355703049668 | etot = -5.62847191654662
120000  ekin = 3.917977483571 |  erot = 6.35662792089838 | epot = -15.903077321226 | etot = -5.62847191675664
121000  ekin = 4.00591742043945 |  erot = 6.22468993027072 | epot = -15.8590792676418 | etot = -5.62847191693158
122000  ekin = 4.08550270322307 |  erot = 6.08676575288907 | epot = -15.8007403736364 | etot = -5.62847191752423
123000  ekin = 4.15433540908341 |  erot = 5.94071572290382 | epot = -15.7235230494644 | etot = -5.6284719174772
124000  ekin = 4.21272085203587 |  erot = 5.78590733869491 | epot = -15.6271001078556 | etot = -5.6284719171248
125000  ekin = 4.26325970413181 |  erot = 5.62467373686638 | epot = -15.5164053575241 | etot = -5.62847191652587
126000  ekin = 4.30880597980495 |  erot = 5.46113290467175 | epot = -15.3984108007457 | etot = -5.62847191626904
127000  ekin = 4.3513631311099 |  erot = 5.29960307371401 | epot = -15.2794381205816 | etot = -5.62847191575766
128000  ekin = 4.39391383900434 |  erot = 5.1438626910668 | epot = -15.166248445447 | etot = -5.62847191537588
129000  ekin = 4.43858036063546 |  erot = 4.99693296064699 | epot = -15.0639852363954 | etot = -5.62847191511291
130000  ekin = 4.48619887382385 |  erot = 4.86092637377849 | epot = -14.9755971627227 | etot = -5.62847191512033
131000  ekin = 4.53629967745933 |  erot = 4.73552279955377 | epot = -14.9002943921677 | etot = -5.62847191515457
132000  ekin = 4.58794392436556 |  erot = 4.62012473201754 | epot = -14.8365405715579 | etot = -5.62847191517478
133000  ekin = 4.63977927970651 |  erot = 4.51475331813802 | epot = -14.7830045130129 | etot = -5.62847191516832
134000  ekin = 4.69096227444416 |  erot = 4.41936571519945 | epot = -14.7387999047784 | etot = -5.62847191513481
135000  ekin = 4.74083332631837 |  erot = 4.33399770983466 | epot = -14.7033029512339 | etot = -5.62847191508088
136000  ekin = 4.78901374177177 |  erot = 4.25873574864645 | epot = -14.6762214054295 | etot = -5.62847191501131
137000  ekin = 4.83519033966057 |  erot = 4.19345584709155 | epot = -14.6571181018606 | etot = -5.62847191510843
138000  ekin = 4.8785719001905 |  erot = 4.13759960010367 | epot = -14.6446434153619 | etot = -5.62847191506776
139000  ekin = 4.91933904268447 |  erot = 4.09041841408057 | epot = -14.6382293717781 | etot = -5.62847191501309
140000  ekin = 4.95802132610539 |  erot = 4.05108530565706 | epot = -14.6375785467308 | etot = -5.6284719149684
141000  ekin = 4.99519923255194 |  erot = 4.01864210163597 | epot = -14.6423132491248 | etot = -5.62847191493691
142000  ekin = 5.03134031865254 |  erot = 3.99210960072457 | epot = -14.6519218343052 | etot = -5.62847191492807
143000  ekin = 5.06663282814497 |  erot = 3.97056100872277 | epot = -14.6656657518139 | etot = -5.62847191494613
144000  ekin = 5.10088003253885 |  erot = 3.95318385936712 | epot = -14.6825358068962 | etot = -5.6284719149902
145000  ekin = 5.13347728619356 |  erot = 3.93933318432743 | epot = -14.7012823855755 | etot = -5.62847191505451
146000  ekin = 5.16346418937003 |  erot = 3.92856945833687 | epot = -14.7205055628374 | etot = -5.62847191513048
147000  ekin = 5.18962884502107 |  erot = 3.92067778970243 | epot = -14.7387785499327 | etot = -5.62847191520919
148000  ekin = 5.21063630105059 |  erot = 3.9156683944794 | epot = -14.7547766108122 | etot = -5.6284719152822
149000  ekin = 5.2251581827736 |  erot = 3.91376203385106 | epot = -14.7673921319674 | etot = -5.62847191534274
150000  ekin = 5.23199081771521 |  erot = 3.91536756919025 | epot = -14.7758303022899 | etot = -5.62847191538439
151000  ekin = 5.23025857435006 |  erot = 3.92102977399718 | epot = -14.7797602637324 | etot = -5.62847191538521
152000  ekin = 5.21970456277776 |  erot = 3.93136599417462 | epot = -14.7795424723221 | etot = -5.62847191536975
153000  ekin = 5.20020715644123 |  erot = 3.94729684643147 | epot = -14.7759759181608 | etot = -5.62847191528808
154000  ekin = 5.1721996228111 |  erot = 3.96989664945544 | epot = -14.7705681875135 | etot = -5.62847191524693
155000  ekin = 5.1359793941544 |  erot = 4.00025654377994 | epot = -14.7647078530865 | etot = -5.62847191515213
156000  ekin = 5.09227456539065 |  erot = 4.03969792967957 | epot = -14.7604444100965 | etot = -5.62847191502628
157000  ekin = 5.04214374656102 |  erot = 4.08965648366449 | epot = -14.7602721451256 | etot = -5.62847191490006
158000  ekin = 4.98664076894023 |  erot = 4.15175637520686 | epot = -14.7668690589174 | etot = -5.62847191477035
159000  ekin = 4.92656708226691 |  erot = 4.22693785976747 | epot = -14.7819768568051 | etot = -5.62847191477073
160000  ekin = 4.86235166665313 |  erot = 4.31524574981796 | epot = -14.8060693313566 | etot = -5.62847191488552
161000  ekin = 4.79340744408746 |  erot = 4.4163419215573 | epot = -14.8382212806413 | etot = -5.62847191499658
162000  ekin = 4.71931679137521 |  erot = 4.52911647420337 | epot = -14.8769051807463 | etot = -5.62847191516775
163000  ekin = 4.63965178838231 |  erot = 4.65170333188761 | epot = -14.919827035615 | etot = -5.62847191534512
164000  ekin = 4.55406399624612 |  erot = 4.78166301740372 | epot = -14.9641989292998 | etot = -5.62847191565
165000  ekin = 4.46213996067706 |  erot = 4.91530272158933 | epot = -15.0059145982079 | etot = -5.6284719159415
166000  ekin = 4.36388109535079 |  erot = 5.04805357548621 | epot = -15.0404065870434 | etot = -5.6284719162064
167000  ekin = 4.25995046842597 |  erot = 5.1751106852229 | epot = -15.0635330700716 | etot = -5.62847191642274
168000  ekin = 4.15154354282232 |  erot = 5.29182746831931 | epot = -15.0718429277136 | etot = -5.62847191657197
169000  ekin = 4.04026084727534 |  erot = 5.39411747728111 | epot = -15.0628502412109 | etot = -5.62847191665441
170000  ekin = 3.92797723838323 |  erot = 5.47890367159922 | epot = -15.0353528265942 | etot = -5.62847191661173
171000  ekin = 3.81680551395755 |  erot = 5.54460219961144 | epot = -14.9898796300185 | etot = -5.62847191644954
172000  ekin = 3.7091219436076 |  erot = 5.59119877272683 | epot = -14.9287926324938 | etot = -5.62847191615935
173000  ekin = 3.60767008609821 |  erot = 5.62020496675995 | epot = -14.8563469686144 | etot = -5.6284719157562
174000  ekin = 3.51593123142494 |  erot = 5.63484613588063 | epot = -14.7792492818536 | etot = -5.62847191454801
175000  ekin = 3.43946966413652 |  erot = 5.64148825119075 | epot = -14.7094298295789 | etot = -5.62847191425165
176000  ekin = 3.38149964339781 |  erot = 5.64304584979584 | epot = -14.6530174072194 | etot = -5.62847191402574
177000  ekin = 3.34426304280087 |  erot = 5.64075589500531 | epot = -14.6134908517365 | etot = -5.62847191393031
178000  ekin = 3.32907821317891 |  erot = 5.63429171925326 | epot = -14.591841846618 | etot = -5.62847191418585
179000  ekin = 3.33553286829121 |  erot = 5.62088708741509 | epot = -14.584891870045 | etot = -5.62847191433869
180000  ekin = 3.36333384277033 |  erot = 5.59827011329207 | epot = -14.5900758706806 | etot = -5.62847191461824
181000  ekin = 3.41118322744494 |  erot = 5.56369949232866 | epot = -14.6033546347461 | etot = -5.6284719149725
182000  ekin = 3.47666657813743 |  erot = 5.51442909119409 | epot = -14.6195675846734 | etot = -5.62847191534184
183000  ekin = 3.55646627296955 |  erot = 5.44847615754776 | epot = -14.6334143461238 | etot = -5.62847191560651
184000  ekin = 3.6467111062375 |  erot = 5.3652813196252 | epot = -14.6404643416888 | etot = -5.62847191582605
185000  ekin = 3.74294243854109 |  erot = 5.26596644090131 | epot = -14.6373807953561 | etot = -5.62847191591375
186000  ekin = 3.84064021177291 |  erot = 5.15359326678927 | epot = -14.6227053944187 | etot = -5.62847191585654
187000  ekin = 3.93563840594892 |  erot = 5.03296537332419 | epot = -14.597075694947 | etot = -5.62847191567386
188000  ekin = 4.02444308409187 |  erot = 4.91004205202586 | epot = -14.5629570515392 | etot = -5.62847191542146
189000  ekin = 4.10437481570208 |  erot = 4.79101157925949 | epot = -14.5238583101441 | etot = -5.62847191518255
190000  ekin = 4.17348832619903 |  erot = 4.68117061833052 | epot = -14.4831308595829 | etot = -5.62847191505338
191000  ekin = 4.23028845394371 |  erot = 4.58386192798834 | epot = -14.4426222970224 | etot = -5.62847191509039
192000  ekin = 4.27358054060605 |  erot = 4.4998453005759 | epot = -14.4018977564797 | etot = -5.62847191529776
193000  ekin = 4.24592911994225 |  erot = 4.46741799187396 | epot = -14.3418190226928 | etot = -5.6284719108766
194000  ekin = 4.19994174151039 |  erot = 4.47173701960661 | epot = -14.3001506793684 | etot = -5.62847191825144
195000  ekin = 4.19981139522248 |  erot = 4.40365513590521 | epot = -14.2319384423515 | etot = -5.62847191122385
196000  ekin = 4.18831859750045 |  erot = 4.32821378408753 | epot = -14.1450042928981 | etot = -5.62847191131015
197000  ekin = 4.16445522600618 |  erot = 4.24686919663607 | epot = -14.0397963337861 | etot = -5.62847191114385
198000  ekin = 4.13074920373111 |  erot = 4.1591963675482 | epot = -13.9184174820277 | etot = -5.62847191074836
199000  ekin = 4.09062074736373 |  erot = 4.0670082911009 | epot = -13.7861009486952 | etot = -5.6284719102306
200000  ekin = 4.04792338687428 |  erot = 3.97356549445608 | epot = -13.6499607909746 | etot = -5.62847190964423
201000  ekin = 4.00668244920026 |  erot = 3.8827721550924 | epot = -13.5179265133952 | etot = -5.62847190910249
202000  ekin = 3.97063392472001 |  erot = 3.79828207702345 | epot = -13.3973879104152 | etot = -5.62847190867176
203000  ekin = 3.94283665189678 |  erot = 3.72290259924011 | epot = -13.2942111595231 | etot = -5.62847190838624
204000  ekin = 3.92540743372475 |  erot = 3.65835216262599 | epot = -13.2122315046014 | etot = -5.62847190825065
205000  ekin = 3.91946432177647 |  erot = 3.60562062221121 | epot = -13.1535568521768 | etot = -5.62847190818916
206000  ekin = 3.92515912499799 |  erot = 3.5651006272676 | epot = -13.1187316605206 | etot = -5.62847190825501
207000  ekin = 3.94166066189976 |  erot = 3.53643554885237 | epot = -13.1065681191338 | etot = -5.62847190838164
208000  ekin = 3.96741904660063 |  erot = 3.51909285319114 | epot = -13.1149838083277 | etot = -5.62847190853597
209000  ekin = 3.99456273873103 |  erot = 3.50083315850502 | epot = -13.1238678065961 | etot = -5.62847190936003
210000  ekin = 4.04796401860803 |  erot = 3.49168954891041 | epot = -13.1681254815448 | etot = -5.62847191402638
211000  ekin = 4.09773342716469 |  erot = 3.49304812013018 | epot = -13.2192534546408 | etot = -5.62847190734595
212000  ekin = 4.14205596974859 |  erot = 3.50221111647957 | epot = -13.272738993695 | etot = -5.62847190746681
213000  ekin = 4.18461227969767 |  erot = 3.51992604962526 | epot = -13.3330102373297 | etot = -5.62847190800682
214000  ekin = 4.22291801221562 |  erot = 3.54318058638069 | epot = -13.3945705067461 | etot = -5.6284719081498
215000  ekin = 4.25639069944622 |  erot = 3.57018634833036 | epot = -13.4550489560133 | etot = -5.62847190823676
216000  ekin = 4.2851705613137 |  erot = 3.59920416165438 | epot = -13.5128466312869 | etot = -5.62847190831882
217000  ekin = 4.30951457891964 |  erot = 3.62862634730559 | epot = -13.5666128346145 | etot = -5.62847190838931
218000  ekin = 4.33022749098204 |  erot = 3.65639118247521 | epot = -13.6150905819369 | etot = -5.62847190847961
219000  ekin = 4.34822739189423 |  erot = 3.68015661121569 | epot = -13.6568559116937 | etot = -5.62847190858377
220000  ekin = 4.36437280259004 |  erot = 3.69755509928418 | epot = -13.6903998105203 | etot = -5.62847190864607
221000  ekin = 4.3795431724407 |  erot = 3.70660976824075 | epot = -13.7146248493741 | etot = -5.62847190869265
222000  ekin = 4.39451292717713 |  erot = 3.7059636337501 | epot = -13.7289484695968 | etot = -5.62847190866954
223000  ekin = 4.41008213189587 |  erot = 3.69513355486956 | epot = -13.7336875953403 | etot = -5.62847190857483
224000  ekin = 4.42678943726806 |  erot = 3.67466536392943 | epot = -13.7299267097384 | etot = -5.62847190854089
225000  ekin = 4.44460701701513 |  erot = 3.64600909387334 | epot = -13.7190880192586 | etot = -5.62847190837011
226000  ekin = 4.47380092383106 |  erot = 3.58830814096671 | epot = -13.6905809780289 | etot = -5.62847191323114
227000  ekin = 4.56056009804728 |  erot = 3.47269306830847 | epot = -13.6617250773547 | etot = -5.62847191099891
228000  ekin = 4.61083327531478 |  erot = 3.40803816010309 | epot = -13.6473433475426 | etot = -5.62847191212468
229000  ekin = 4.63150013168403 |  erot = 3.35898148999895 | epot = -13.6189535337008 | etot = -5.62847191201778
230000  ekin = 4.65431068144473 |  erot = 3.31343017817745 | epot = -13.5962127716243 | etot = -5.6284719120021
231000  ekin = 4.67934821405307 |  erot = 3.27332737526573 | epot = -13.5811475014855 | etot = -5.62847191216669
232000  ekin = 4.70592354946813 |  erot = 3.23944506667136 | epot = -13.5738405284622 | etot = -5.62847191232276
233000  ekin = 4.73271416123083 |  erot = 3.21144788525595 | epot = -13.5726339590467 | etot = -5.62847191255993
234000  ekin = 4.75943444985639 |  erot = 3.1907872923357 | epot = -13.5786936545848 | etot = -5.62847191239267
235000  ekin = 4.78642241818744 |  erot = 3.18021193976957 | epot = -13.5951062704039 | etot = -5.6284719124469
236000  ekin = 4.81315037988923 |  erot = 3.18017325335269 | epot = -13.6217955457093 | etot = -5.62847191246735
237000  ekin = 4.8392329718629 |  erot = 3.19145400453975 | epot = -13.6591588888945 | etot = -5.62847191249184
238000  ekin = 4.86487585932551 |  erot = 3.21481908801047 | epot = -13.7081668597505 | etot = -5.6284719124145
239000  ekin = 4.89063931715673 |  erot = 3.25114955282889 | epot = -13.7702607827002 | etot = -5.62847191271459
240000  ekin = 4.91656145053236 |  erot = 3.29901781219826 | epot = -13.8440511755081 | etot = -5.62847191277752
241000  ekin = 4.94245255089961 |  erot = 3.35699698382532 | epot = -13.9279214477286 | etot = -5.6284719130037
242000  ekin = 4.96767380346647 |  erot = 3.42365009426927 | epot = -14.0197958109368 | etot = -5.62847191320106
243000  ekin = 5.00573446225754 |  erot = 3.4703026046975 | epot = -14.1045089792156 | etot = -5.62847191226052
244000  ekin = 5.06987350321733 |  erot = 3.50985787352853 | epot = -14.2082032933142 | etot = -5.62847191656831
245000  ekin = 5.08405115957704 |  erot = 3.57323736719164 | epot = -14.2857604930783 | etot = -5.62847196630962
246000  ekin = 5.13867281569179 |  erot = 3.53022410787366 | epot = -14.2973688419055 | etot = -5.6284719183401
247000  ekin = 5.24446071734777 |  erot = 3.63707192640347 | epot = -14.5100045566539 | etot = -5.62847191290265
248000  ekin = 5.23528120841629 |  erot = 3.74023330974686 | epot = -14.6039864311718 | etot = -5.62847191300868
249000  ekin = 5.21260078435025 |  erot = 3.83729795660928 | epot = -14.6783706538317 | etot = -5.62847191287219
250000  ekin = 5.17839081250158 |  erot = 3.92749000334654 | epot = -14.7343527284549 | etot = -5.62847191260676
251000  ekin = 5.13586036333822 |  erot = 4.01108345358611 | epot = -14.7754157290749 | etot = -5.62847191215055
252000  ekin = 5.08918292106336 |  erot = 4.09018694185633 | epot = -14.8078417745696 | etot = -5.62847191164993
253000  ekin = 5.04264218495342 |  erot = 4.16759058213183 | epot = -14.8387046782932 | etot = -5.6284719112079
254000  ekin = 4.99116344077505 |  erot = 4.24248912288795 | epot = -14.8621245493461 | etot = -5.62847198568311
255000  ekin = 4.72637462795688 |  erot = 4.24407837664841 | epot = -14.5989249325716 | etot = -5.62847192796631
256000  ekin = 4.59834109998317 |  erot = 4.36369782214436 | epot = -14.5905108365359 | etot = -5.62847191440834
257000  ekin = 4.77089539878217 |  erot = 4.60066315319146 | epot = -15.0000305290347 | etot = -5.62847197706109
258000  ekin = 4.85704242989266 |  erot = 4.66807324378714 | epot = -15.1535875814333 | etot = -5.62847190775346
259000  ekin = 4.89901811471507 |  erot = 4.72718635923573 | epot = -15.254676380875 | etot = -5.6284719069242
260000  ekin = 4.94107094738451 |  erot = 4.79406863688521 | epot = -15.3636114914294 | etot = -5.62847190715964
261000  ekin = 4.98242309073893 |  erot = 4.8650862858394 | epot = -15.475981284639 | etot = -5.62847190806066
262000  ekin = 5.01659840997392 |  erot = 4.93871137850632 | epot = -15.5837816973815 | etot = -5.62847190890128
263000  ekin = 5.03982661193263 |  erot = 5.00983839414493 | epot = -15.6781369155853 | etot = -5.62847190950775
264000  ekin = 5.04732696348514 |  erot = 5.0738966760124 | epot = -15.7496955496042 | etot = -5.62847191010663
265000  ekin = 5.03448807083613 |  erot = 5.12688367715407 | epot = -15.7898436586288 | etot = -5.62847191063859
266000  ekin = 4.99773438958017 |  erot = 5.16480683533639 | epot = -15.7910131359662 | etot = -5.62847191104965
267000  ekin = 4.93508497404523 |  erot = 5.18388050751821 | epot = -15.7474373928666 | etot = -5.62847191130321
268000  ekin = 4.84654531469028 |  erot = 5.18063468560236 | epot = -15.6556519116769 | etot = -5.62847191138423
269000  ekin = 4.73423214272697 |  erot = 5.15198859732873 | epot = -15.5146926513461 | etot = -5.62847191129045
270000  ekin = 4.60224202246498 |  erot = 5.09540688817618 | epot = -15.3261208188794 | etot = -5.62847190823824
271000  ekin = 4.45636876652849 |  erot = 5.00923317388578 | epot = -15.0940738481813 | etot = -5.62847190776705
272000  ekin = 4.30375505733378 |  erot = 4.89315778304315 | epot = -14.8253847474738 | etot = -5.62847190709691
273000  ekin = 4.15244061477878 |  erot = 4.7486264812316 | epot = -14.5295390022719 | etot = -5.62847190626148
274000  ekin = 4.01137482332545 |  erot = 4.57896672456051 | epot = -14.2188134532 | etot = -5.62847190531402
275000  ekin = 3.8738887289047 |  erot = 4.38950805794603 | epot = -13.8918687169641 | etot = -5.62847193011335
276000  ekin = 3.70828148348879 |  erot = 4.18975567949506 | epot = -13.5265090654489 | etot = -5.62847190246507
277000  ekin = 3.74025187939535 |  erot = 3.9889440520989 | epot = -13.3576678645531 | etot = -5.62847193305889
278000  ekin = 3.7422176077476 |  erot = 3.77038543691278 | epot = -13.1410749479016 | etot = -5.62847190324125
279000  ekin = 3.75220115766357 |  erot = 3.55790331814165 | epot = -12.9385763794475 | etot = -5.62847190364226
280000  ekin = 3.77561814014422 |  erot = 3.35781654492157 | epot = -12.761906588375 | etot = -5.62847190330922
281000  ekin = 3.8127292748494 |  erot = 3.17409695196037 | epot = -12.6152981298172 | etot = -5.62847190300746
282000  ekin = 3.8650198803727 |  erot = 3.00952640154862 | epot = -12.5030181842099 | etot = -5.62847190228857
283000  ekin = 3.93628900407747 |  erot = 2.86613168181882 | epot = -12.4308925881338 | etot = -5.62847190223754
284000  ekin = 4.02702703051544 |  erot = 2.74480306500171 | epot = -12.4003019979155 | etot = -5.62847190239832
285000  ekin = 4.14139706641406 |  erot = 2.64599110158073 | epot = -12.415860069183 | etot = -5.62847190118821
286000  ekin = 4.28525774919351 |  erot = 2.56950762489519 | epot = -12.4832372763371 | etot = -5.62847190224846
287000  ekin = 4.44987555796579 |  erot = 2.51493810068713 | epot = -12.5932855609721 | etot = -5.62847190231916
288000  ekin = 4.63520922265654 |  erot = 2.48100112556116 | epot = -12.7446822515619 | etot = -5.62847190334424
289000  ekin = 4.83125797006283 |  erot = 2.46527241540116 | epot = -12.9250022897006 | etot = -5.62847190423665
290000  ekin = 5.0276379921997 |  erot = 2.46542435682448 | epot = -13.1215342541114 | etot = -5.62847190508722
291000  ekin = 5.2146546857612 |  erot = 2.47913524145133 | epot = -13.3222618329781 | etot = -5.62847190576562
292000  ekin = 5.38472348790273 |  erot = 2.50416430329571 | epot = -13.5173596974383 | etot = -5.6284719062399
293000  ekin = 5.53302487062802 |  erot = 2.53823701976794 | epot = -13.6997337969592 | etot = -5.62847190656326
294000  ekin = 5.65718701899253 |  erot = 2.57877496353383 | epot = -13.8644338893389 | etot = -5.62847190681251
295000  ekin = 5.75652780496366 |  erot = 2.6226991978438 | epot = -14.0076989098382 | etot = -5.62847190703071
296000  ekin = 5.831394994912 |  erot = 2.66652171229174 | epot = -14.1263886144133 | etot = -5.62847190720959
297000  ekin = 5.88282356331969 |  erot = 2.7067561433018 | epot = -14.2180516139336 | etot = -5.62847190731209
298000  ekin = 5.91239748765047 |  erot = 2.7404849430071 | epot = -14.2813543379681 | etot = -5.62847190731053
299000  ekin = 5.92208198046357 |  erot = 2.76585299301872 | epot = -14.316406880689 | etot = -5.62847190720674
300000  ekin = 5.91390942018704 |  erot = 2.78233336188245 | epot = -14.324714689096 | etot = -5.62847190702653
301000  ekin = 5.88962133511206 |  erot = 2.79074353675435 | epot = -14.3088367786619 | etot = -5.62847190679551
302000  ekin = 5.85048781420873 |  erot = 2.7930787579118 | epot = -14.2720384786441 | etot = -5.62847190652361
303000  ekin = 5.79743517876893 |  erot = 2.7922322555207 | epot = -14.2181393405003 | etot = -5.62847190621068
304000  ekin = 5.73124340760376 |  erot = 2.79262915088882 | epot = -14.152344464157 | etot = -5.62847190566443
305000  ekin = 5.65258268469575 |  erot = 2.79940899090938 | epot = -14.0804635809876 | etot = -5.62847190538247
306000  ekin = 5.56254653522724 |  erot = 2.81503734235203 | epot = -14.0060557827384 | etot = -5.62847190515913
307000  ekin = 5.46251129680284 |  erot = 2.84075892386426 | epot = -13.9317421257021 | etot = -5.62847190503496
308000  ekin = 5.35391293499254 |  erot = 2.8763323516476 | epot = -13.8587171916734 | etot = -5.62847190503321
309000  ekin = 5.23805007410835 |  erot = 2.91996940724094 | epot = -13.7864913863859 | etot = -5.62847190503662
310000  ekin = 5.11613875821465 |  erot = 2.96880482961016 | epot = -13.7134154931118 | etot = -5.62847190528703
311000  ekin = 4.98925852658091 |  erot = 3.01839769776862 | epot = -13.6361281298183 | etot = -5.62847190546874
312000  ekin = 4.85867326620802 |  erot = 3.06421411594701 | epot = -13.551359287778 | etot = -5.62847190562294
313000  ekin = 4.72585112665675 |  erot = 3.10236590331236 | epot = -13.4566889356338 | etot = -5.62847190566473
314000  ekin = 4.59293421044357 |  erot = 3.13002199530366 | epot = -13.3514281113051 | etot = -5.62847190555782
315000  ekin = 4.46270669969479 |  erot = 3.14588950388911 | epot = -13.2370681089025 | etot = -5.62847190531859
316000  ekin = 4.33845457031922 |  erot = 3.15016989319509 | epot = -13.1170963685002 | etot = -5.6284719049859
317000  ekin = 4.22370149064844 |  erot = 3.14429402988477 | epot = -12.9964674251408 | etot = -5.62847190460755
318000  ekin = 4.12188681798229 |  erot = 3.13056754979347 | epot = -12.8809262720023 | etot = -5.62847190422658
319000  ekin = 4.03607214169361 |  erot = 3.1118418278821 | epot = -12.7763858734472 | etot = -5.62847190387148
320000  ekin = 3.96873641006371 |  erot = 3.09128048612715 | epot = -12.6884887997443 | etot = -5.62847190355343
321000  ekin = 3.92167797367017 |  erot = 3.0722610799471 | epot = -12.6224109568885 | etot = -5.62847190327121
322000  ekin = 3.89600971420466 |  erot = 3.05833648374902 | epot = -12.5828181009822 | etot = -5.62847190302848
323000  ekin = 3.89216326550187 |  erot = 3.05323078720392 | epot = -12.5738659555428 | etot = -5.62847190283699
324000  ekin = 3.909717527195 |  erot = 3.06065920137354 | epot = -12.5988486315685 | etot = -5.62847190299993
325000  ekin = 3.9447419776643 |  erot = 3.0832555784228 | epot = -12.6564694593362 | etot = -5.62847190324913
326000  ekin = 3.99225791211472 |  erot = 3.12131666195463 | epot = -12.7420464778415 | etot = -5.62847190377216
327000  ekin = 4.04715751819168 |  erot = 3.172775738727 | epot = -12.8484051614928 | etot = -5.62847190457415
328000  ekin = 4.10306827950573 |  erot = 3.23289809100626 | epot = -12.9644382761132 | etot = -5.62847190560125
329000  ekin = 4.15294077798549 |  erot = 3.29460254685915 | epot = -13.0760152315189 | etot = -5.62847190667429
330000  ekin = 4.19046086380583 |  erot = 3.34957314358274 | epot = -13.168505914891 | etot = -5.62847190750244
331000  ekin = 4.21187936707171 |  erot = 3.38989153265679 | epot = -13.2302428076967 | etot = -5.62847190796821
332000  ekin = 4.21589857656355 |  erot = 3.41075094373931 | epot = -13.2551214281579 | etot = -5.62847190785506
333000  ekin = 4.20485266003106 |  erot = 3.41174399823996 | epot = -13.2450685654657 | etot = -5.62847190719471
334000  ekin = 4.18435368279266 |  erot = 3.3969222504346 | epot = -13.2097478393861 | etot = -5.62847190615883
335000  ekin = 4.16205455864617 |  erot = 3.37367623593368 | epot = -13.1642026995672 | etot = -5.62847190498732
336000  ekin = 4.14609491423746 |  erot = 3.35093309665592 | epot = -13.1254999147981 | etot = -5.62847190390469
337000  ekin = 4.14364358934427 |  erot = 3.33736964605148 | epot = -13.1094851384677 | etot = -5.62847190307192
338000  ekin = 4.15982493126162 |  erot = 3.33968220642259 | epot = -13.1279790404152 | etot = -5.62847190273094
339000  ekin = 4.19714166718982 |  erot = 3.36120406394132 | epot = -13.1868176337383 | etot = -5.62847190260713
340000  ekin = 4.25518474384191 |  erot = 3.40394456534264 | epot = -13.2876012119845 | etot = -5.62847190279996
341000  ekin = 4.33079125363221 |  erot = 3.46797257818204 | epot = -13.427235735054 | etot = -5.62847190323973
342000  ekin = 4.41854745261504 |  erot = 3.55173943760075 | epot = -13.5987587940637 | etot = -5.62847190384787
343000  ekin = 4.51153864841087 |  erot = 3.6525049455108 | epot = -13.7925154984701 | etot = -5.6284719045484
344000  ekin = 4.60219231320258 |  erot = 3.7667191864863 | epot = -13.9973834049448 | etot = -5.62847190525595
345000  ekin = 4.68312343522075 |  erot = 3.89042211425437 | epot = -14.2020174553798 | etot = -5.62847190590469
346000  ekin = 4.74786790541571 |  erot = 4.01955036384873 | epot = -14.3958901757078 | etot = -5.62847190644333
347000  ekin = 4.79150376887642 |  erot = 4.1501952988532 | epot = -14.5701709745259 | etot = -5.62847190679624
348000  ekin = 4.81117855586591 |  erot = 4.27877359765601 | epot = -14.7184240605724 | etot = -5.62847190705045
349000  ekin = 4.80564918859978 |  erot = 4.4020566269369 | epot = -14.8361777227059 | etot = -5.62847190716923
350000  ekin = 4.775459453294 |  erot = 4.51714564006864 | epot = -14.9210770005572 | etot = -5.62847190719451
351000  ekin = 4.72262273322108 |  erot = 4.62116010890239 | epot = -14.9722547493291 | etot = -5.62847190720564
352000  ekin = 4.65007958813926 |  erot = 4.71078593023013 | epot = -14.9893374256508 | etot = -5.62847190728145
353000  ekin = 4.56109157464889 |  erot = 4.78180335586108 | epot = -14.9713668379744 | etot = -5.62847190746439
354000  ekin = 4.45876151245918 |  erot = 4.82895979649635 | epot = -14.9161932166803 | etot = -5.62847190772477
355000  ekin = 4.34584612944807 |  erot = 4.84663553111008 | epot = -14.8209535684845 | etot = -5.62847190792637
356000  ekin = 4.22495470320217 |  erot = 4.83038190910788 | epot = -14.6838085202012 | etot = -5.62847190789113
357000  ekin = 4.09903296594058 |  erot = 4.77873075095349 | epot = -14.5062356243781 | etot = -5.62847190748405
358000  ekin = 3.97178667555325 |  erot = 4.69444561050834 | epot = -14.2947041927723 | etot = -5.62847190671076
359000  ekin = 3.84767298928901 |  erot = 4.58431182214479 | epot = -14.0604567171878 | etot = -5.62847190575396
360000  ekin = 3.73136439808259 |  erot = 4.45746613158227 | epot = -13.8173024344245 | etot = -5.62847190475967
361000  ekin = 3.62758093165347 |  erot = 4.32379064505672 | epot = -13.5798434807434 | etot = -5.6284719040332
362000  ekin = 3.54294892306889 |  erot = 4.19358097114633 | epot = -13.3650017978944 | etot = -5.62847190367919
363000  ekin = 3.47837311691986 |  erot = 4.0720769208227 | epot = -13.1789219413015 | etot = -5.62847190355893
364000  ekin = 3.43225009807059 |  erot = 3.96193194141555 | epot = -13.0226539430748 | etot = -5.62847190358862
365000  ekin = 3.40198388464765 |  erot = 3.86460642704982 | epot = -12.8950622153839 | etot = -5.6284719036864
366000  ekin = 3.38451833853905 |  erot = 3.78104622244181 | epot = -12.7940364647635 | etot = -5.62847190378261
367000  ekin = 3.37682483160009 |  erot = 3.71218000856786 | epot = -12.7174767440105 | etot = -5.62847190384259
368000  ekin = 3.37625204140558 |  erot = 3.65912147822153 | epot = -12.6638454234815 | etot = -5.62847190385436
369000  ekin = 3.38074636728934 |  erot = 3.62312680343841 | epot = -12.6323450745543 | etot = -5.62847190382652
370000  ekin = 3.38894636700993 |  erot = 3.60538856636576 | epot = -12.6228068371967 | etot = -5.62847190382103
371000  ekin = 3.40011634062377 |  erot = 3.60672333637664 | epot = -12.6353115807482 | etot = -5.62847190374777
372000  ekin = 3.41430323565391 |  erot = 3.62748920223906 | epot = -12.6702643415923 | etot = -5.62847190369933
373000  ekin = 3.43217624798232 |  erot = 3.66740997408884 | epot = -12.7280581256152 | etot = -5.62847190354403
374000  ekin = 3.45538314688811 |  erot = 3.72532070767119 | epot = -12.8091757581878 | etot = -5.6284719036285
375000  ekin = 3.48458983106156 |  erot = 3.79950576967264 | epot = -12.9125675044911 | etot = -5.62847190375688
376000  ekin = 3.51994630866347 |  erot = 3.88772077542967 | epot = -13.0361389880195 | etot = -5.62847190392633
377000  ekin = 3.56162263242456 |  erot = 3.98718032088818 | epot = -13.1772748574071 | etot = -5.62847190409436
378000  ekin = 3.6100922902251 |  erot = 4.0947000758381 | epot = -13.3332642703684 | etot = -5.62847190430524
379000  ekin = 3.66621939256046 |  erot = 4.20668278518757 | epot = -13.5013740821915 | etot = -5.62847190444345
380000  ekin = 3.73222313439616 |  erot = 4.31893025308502 | epot = -13.679625292361 | etot = -5.62847190487981
381000  ekin = 3.80656943728396 |  erot = 4.42661769097683 | epot = -13.8616590337125 | etot = -5.62847190545174
382000  ekin = 3.88594558531105 |  erot = 4.5245941150872 | epot = -14.0390116064829 | etot = -5.62847190608467
383000  ekin = 3.96695090004545 |  erot = 4.60747433897689 | epot = -14.2028971457477 | etot = -5.6284719067254
384000  ekin = 4.04619645072455 |  erot = 4.66967915259811 | epot = -14.3443475106205 | etot = -5.62847190729781
385000  ekin = 4.12092029141964 |  erot = 4.70599192064016 | epot = -14.4553841197305 | etot = -5.6284719076707
386000  ekin = 4.18945537166672 |  erot = 4.71237691681517 | epot = -14.5303041965891 | etot = -5.62847190810726
387000  ekin = 4.24770733747961 |  erot = 4.68531871643272 | epot = -14.5614979619676 | etot = -5.62847190805527
388000  ekin = 4.29400518234208 |  erot = 4.6243306476361 | epot = -14.54680773769 | etot = -5.6284719077118
389000  ekin = 4.32973751036295 |  erot = 4.53230747812733 | epot = -14.490516895656 | etot = -5.62847190716571
390000  ekin = 4.35696496432676 |  erot = 4.41432356912296 | epot = -14.3997604400197 | etot = -5.62847190657
391000  ekin = 4.37768888460228 |  erot = 4.27672754997619 | epot = -14.2828883405167 | etot = -5.62847190593827
392000  ekin = 4.39398588699562 |  erot = 4.12625191221952 | epot = -14.1487097045966 | etot = -5.62847190538152
393000  ekin = 4.40738241116594 |  erot = 3.96936593192815 | epot = -14.0052202479191 | etot = -5.62847190482498
394000  ekin = 4.41937568153708 |  erot = 3.81285278685076 | epot = -13.8607003730524 | etot = -5.62847190466453
395000  ekin = 4.42988768162378 |  erot = 3.66065946574232 | epot = -13.7190190518987 | etot = -5.62847190453264
396000  ekin = 4.43847476587128 |  erot = 3.51525603214372 | epot = -13.5822027024083 | etot = -5.62847190439327
397000  ekin = 4.44517728394811 |  erot = 3.37891512777571 | epot = -13.4525643159423 | etot = -5.62847190421853
398000  ekin = 4.45064950023609 |  erot = 3.25392386319321 | epot = -13.3330452674276 | etot = -5.6284719039983
399000  ekin = 4.45613851374847 |  erot = 3.14269651882853 | epot = -13.2273069363774 | etot = -5.62847190380043
400000  ekin = 4.46297608303065 |  erot = 3.04745583067223 | epot = -13.1389038172499 | etot = -5.62847190354703
401000  ekin = 4.47275545998945 |  erot = 2.97053701413765 | epot = -13.0717643774884 | etot = -5.62847190336132
402000  ekin = 4.4867233669815 |  erot = 2.91396522583554 | epot = -13.0291604961594 | etot = -5.62847190334236
403000  ekin = 4.50482841069307 |  erot = 2.878702518135 | epot = -13.0120028324451 | etot = -5.62847190361703
404000  ekin = 4.52484325727042 |  erot = 2.86379686218831 | epot = -13.0171120237121 | etot = -5.62847190425332
405000  ekin = 4.54178669949201 |  erot = 2.86535120573131 | epot = -13.0356098107021 | etot = -5.62847190547881
406000  ekin = 4.54812186972085 |  erot = 2.87565623457905 | epot = -13.0522500108985 | etot = -5.62847190659857
407000  ekin = 4.53567765655617 |  erot = 2.88781666337554 | epot = -13.0519662273554 | etot = -5.62847190742372
408000  ekin = 4.49806839864289 |  erot = 2.89717319278637 | epot = -13.0237134990808 | etot = -5.62847190765151
409000  ekin = 4.43289041815772 |  erot = 2.902931734329 | epot = -12.9642940597643 | etot = -5.62847190727754
410000  ekin = 4.34222243501198 |  erot = 2.90784571767124 | epot = -12.8785400592308 | etot = -5.62847190654753
411000  ekin = 4.2312232897104 |  erot = 2.91632332334364 | epot = -12.7760185188509 | etot = -5.62847190579687
412000  ekin = 4.10591302458171 |  erot = 2.93234263230831 | epot = -12.6667275621271 | etot = -5.62847190523708
413000  ekin = 3.97147909125674 |  erot = 2.95826875343664 | epot = -12.558219749601 | etot = -5.62847190490761
414000  ekin = 3.83169645318917 |  erot = 2.99487215447219 | epot = -12.4550405124062 | etot = -5.62847190474485
415000  ekin = 3.68915556877219 |  erot = 3.04191716161325 | epot = -12.3595446350524 | etot = -5.62847190466692
416000  ekin = 3.54575553248676 |  erot = 3.09878213621822 | epot = -12.2730095733187 | etot = -5.62847190461375
417000  ekin = 3.4031527113813 |  erot = 3.16484246800782 | epot = -12.1964670839426 | etot = -5.62847190455352
418000  ekin = 3.26306253865582 |  erot = 3.23960054563491 | epot = -12.1311349887653 | etot = -5.62847190447458
419000  ekin = 3.12743539438672 |  erot = 3.32265867820799 | epot = -12.0785659769689 | etot = -5.62847190437421
420000  ekin = 2.99854685240877 |  erot = 3.4136239635472 | epot = -12.0406427202134 | etot = -5.62847190425738
421000  ekin = 2.87901712485216 |  erot = 3.51197880387927 | epot = -12.0194678328692 | etot = -5.62847190413781
422000  ekin = 2.77174596045298 |  erot = 3.61690112211582 | epot = -12.0171189866118 | etot = -5.62847190404304
423000  ekin = 2.67973794658028 |  erot = 3.72700827493801 | epot = -12.0352181255348 | etot = -5.62847190401645
424000  ekin = 2.60579870922478 |  erot = 3.84002717535244 | epot = -12.0742977886915 | etot = -5.62847190411423
425000  ekin = 2.55208954521867 |  erot = 3.95244167899541 | epot = -12.1330031286144 | etot = -5.62847190440034
426000  ekin = 2.51954653039791 |  erot = 4.0592021281281 | epot = -12.2072205634574 | etot = -5.62847190493135
427000  ekin = 2.50725893886494 |  erot = 4.15363681834942 | epot = -12.2893676629309 | etot = -5.62847190571651
428000  ekin = 2.51210485171589 |  erot = 4.22782399618561 | epot = -12.3684007545526 | etot = -5.62847190665113
429000  ekin = 2.52911833229947 |  erot = 4.27377369075778 | epot = -12.4313639305394 | etot = -5.62847190748213
430000  ekin = 2.55284926698095 |  erot = 4.28551618829295 | epot = -12.4668373631646 | etot = -5.62847190789067
431000  ekin = 2.57924139417397 |  erot = 4.26142412038642 | epot = -12.4691374222452 | etot = -5.62847190768476
432000  ekin = 2.60692475464512 |  erot = 4.20541068247312 | epot = -12.4408073440571 | etot = -5.62847190693889
433000  ekin = 2.63712842980493 |  erot = 4.12604912501896 | epot = -12.3916494607615 | etot = -5.62847190593759
434000  ekin = 2.67245542239956 |  erot = 4.03405948921746 | epot = -12.3349868166074 | etot = -5.62847190499041
435000  ekin = 2.71543854639308 |  erot = 3.93961255971266 | epot = -12.2835230103916 | etot = -5.6284719042859
436000  ekin = 2.76760991340927 |  erot = 3.85063248523894 | epot = -12.2467143025267 | etot = -5.62847190387852
437000  ekin = 2.82920515671299 |  erot = 3.77223859651369 | epot = -12.2299156569551 | etot = -5.62847190372843
438000  ekin = 2.89929820058642 |  erot = 3.70707509976327 | epot = -12.2348452041194 | etot = -5.62847190376972
439000  ekin = 2.97609334155228 |  erot = 3.65590372390487 | epot = -12.2604689693994 | etot = -5.62847190394222
440000  ekin = 3.05720906612657 |  erot = 3.61815200785477 | epot = -12.3038329781837 | etot = -5.62847190420235
441000  ekin = 3.13989672828498 |  erot = 3.5923230240138 | epot = -12.3606916568186 | etot = -5.62847190451978
442000  ekin = 3.22119927518007 |  erot = 3.57626892521701 | epot = -12.4259401052724 | etot = -5.62847190487534
443000  ekin = 3.29807867301044 |  erot = 3.56737972997584 | epot = -12.4939303082352 | etot = -5.62847190524897
444000  ekin = 3.36753883942593 |  erot = 3.5627634892875 | epot = -12.5587742343338 | etot = -5.62847190562033
445000  ekin = 3.42676046579246 |  erot = 3.55942025920022 | epot = -12.61465263096 | etot = -5.62847190596735
446000  ekin = 3.47324383644588 |  erot = 3.5544346230974 | epot = -12.656150365814 | etot = -5.62847190627077
447000  ekin = 3.5049735437346 |  erot = 3.54511419620144 | epot = -12.6785596464445 | etot = -5.62847190650841
448000  ekin = 3.52056213079933 |  erot = 3.52974100710232 | epot = -12.6787750444238 | etot = -5.62847190652213
449000  ekin = 3.51939696586928 |  erot = 3.50705904510762 | epot = -12.6549279175841 | etot = -5.62847190660721
450000  ekin = 3.5016453604895 |  erot = 3.47565071065453 | epot = -12.6057679777457 | etot = -5.62847190660169
451000  ekin = 3.4682479070263 |  erot = 3.43472151201801 | epot = -12.5314413255477 | etot = -5.62847190650335
452000  ekin = 3.4209031273111 |  erot = 3.38414558728425 | epot = -12.4335206209091 | etot = -5.62847190631371
453000  ekin = 3.36201791822536 |  erot = 3.32449206044419 | epot = -12.3149818847075 | etot = -5.62847190603792
454000  ekin = 3.29463316054452 |  erot = 3.25701739817987 | epot = -12.1801224644102 | etot = -5.62847190568583
455000  ekin = 3.22233274892566 |  erot = 3.1836070327567 | epot = -12.0344116869535 | etot = -5.62847190527116
456000  ekin = 3.14914248622541 |  erot = 3.10666992196831 | epot = -11.8842843130064 | etot = -5.62847190481269
457000  ekin = 3.07939737167076 |  erot = 3.02894564057197 | epot = -11.7368149165839 | etot = -5.62847190434118
458000  ekin = 3.01756413262458 |  erot = 2.95322108561153 | epot = -11.5992571220896 | etot = -5.62847190385345
459000  ekin = 2.96810632518675 |  erot = 2.88249754734662 | epot = -11.4790757759398 | etot = -5.62847190340644
460000  ekin = 2.9351388899854 |  erot = 2.8195526751929 | epot = -11.3831634682146 | etot = -5.62847190303627
461000  ekin = 2.9220574638482 |  erot = 2.76669234906226 | epot = -11.3172217156914 | etot = -5.62847190278099
462000  ekin = 2.93114290147613 |  erot = 2.72556812593916 | epot = -11.2851829300893 | etot = -5.62847190267398
463000  ekin = 2.96319319678358 |  erot = 2.6970319375937 | epot = -11.288697037115 | etot = -5.62847190273775
464000  ekin = 3.01726238567761 |  erot = 2.68105615127934 | epot = -11.3267904399336 | etot = -5.62847190297667
465000  ekin = 3.0905839893185 |  erot = 2.67674994756567 | epot = -11.3958058402555 | etot = -5.62847190337137
466000  ekin = 3.17872270900412 |  erot = 2.68248866697544 | epot = -11.4896832798615 | etot = -5.62847190388194
467000  ekin = 3.2759411449647 |  erot = 2.69614045582549 | epot = -11.6005535052462 | etot = -5.62847190445603
468000  ekin = 3.3757128213418 |  erot = 2.71534026236979 | epot = -11.7195249887523 | etot = -5.62847190504073
469000  ekin = 3.47128178262906 |  erot = 2.73774679759999 | epot = -11.8375004858203 | etot = -5.62847190559124
470000  ekin = 3.55617737698814 |  erot = 2.76123628658323 | epot = -11.9458855696467 | etot = -5.62847190607528
471000  ekin = 3.62463309398894 |  erot = 2.78402790001185 | epot = -12.0371329004709 | etot = -5.62847190647012
472000  ekin = 3.67190559891076 |  erot = 2.80477124776522 | epot = -12.1051487534338 | etot = -5.62847190675782
473000  ekin = 3.69451868438938 |  erot = 2.82263116139442 | epot = -12.1456217527051 | etot = -5.62847190692131
474000  ekin = 3.6904574632874 |  erot = 2.83737882567851 | epot = -12.1563081959127 | etot = -5.62847190694682
475000  ekin = 3.65932116347407 |  erot = 2.84946541727023 | epot = -12.1372584875705 | etot = -5.62847190682616
476000  ekin = 3.6024248613464 |  erot = 2.86004016499618 | epot = -12.0909369329036 | etot = -5.62847190656106
477000  ekin = 3.52282746235502 |  erot = 2.87088465737468 | epot = -12.0221840258926 | etot = -5.62847190616295
478000  ekin = 3.4252545262514 |  erot = 2.88424967272973 | epot = -11.9379761046484 | etot = -5.62847190566729
479000  ekin = 3.3158834973409 |  erot = 2.9025464689993 | epot = -11.8469018714575 | etot = -5.62847190511731
480000  ekin = 3.20192949241002 |  erot = 2.9280108139536 | epot = -11.7584122109431 | etot = -5.62847190457953
481000  ekin = 3.0910210683624 |  erot = 2.96227510045933 | epot = -11.6817680729565 | etot = -5.62847190413479
482000  ekin = 2.99039932397453 |  erot = 3.00590839374898 | epot = -11.624779621589 | etot = -5.62847190386547
483000  ekin = 2.90605693341701 |  erot = 3.05799802970265 | epot = -11.5925268669571 | etot = -5.62847190383745
484000  ekin = 2.84200171522719 |  erot = 3.1158684086963 | epot = -11.5863420280039 | etot = -5.62847190408043
485000  ekin = 2.8107203647392 |  erot = 3.03665546446731 | epot = -11.4758477217447 | etot = -5.62847189253823
486000  ekin = 2.99172671809891 |  erot = 2.89028588604565 | epot = -11.5104845148737 | etot = -5.62847191072917
487000  ekin = 3.04661020880955 |  erot = 2.89516257155244 | epot = -11.5702446859975 | etot = -5.62847190563554
488000  ekin = 3.0281344546093 |  erot = 2.91755814175805 | epot = -11.5741645019039 | etot = -5.62847190553655
489000  ekin = 3.029181731901 |  erot = 2.94703274343486 | epot = -11.6046863809391 | etot = -5.62847190560325
490000  ekin = 3.04920929977316 |  erot = 2.98299921440646 | epot = -11.6606804200013 | etot = -5.6284719058217
491000  ekin = 3.08564623425853 |  erot = 3.02458607704584 | epot = -11.7387042174245 | etot = -5.62847190612015
492000  ekin = 3.13426650219985 |  erot = 3.07113014041039 | epot = -11.8338685490491 | etot = -5.62847190643885
493000  ekin = 3.19024782362052 |  erot = 3.12246736379652 | epot = -11.9411870940637 | etot = -5.62847190664665
494000  ekin = 3.24418110412923 |  erot = 3.1775709353208 | epot = -12.0502240479676 | etot = -5.62847200851753
495000  ekin = 3.12930691896466 |  erot = 3.12025770015596 | epot = -11.8780365339506 | etot = -5.62847191482993
496000  ekin = 3.38154400840256 |  erot = 3.12702216684245 | epot = -12.1370381394549 | etot = -5.62847196420991
497000  ekin = 3.53796334311463 |  erot = 3.21345240187021 | epot = -12.3798876662224 | etot = -5.62847192123757
498000  ekin = 3.5472524225097 |  erot = 3.31274815696778 | epot = -12.4884725007327 | etot = -5.62847192125524
499000  ekin = 3.54686752397225 |  erot = 3.42936350673127 | epot = -12.6047029520502 | etot = -5.62847192134665
500000  ekin = 3.53611629147 |  erot = 3.56214471850298 | epot = -12.7267329314865 | etot = -5.62847192151349
501000  ekin = 3.51474019585262 |  erot = 3.7083124006371 | epot = -12.8515245182488 | etot = -5.62847192175904
502000  ekin = 3.4829154361683 |  erot = 3.86351597859086 | epot = -12.974903336751 | etot = -5.62847192199186
503000  ekin = 3.44167367982997 |  erot = 4.02200657195917 | epot = -13.0921521741379 | etot = -5.62847192234872
504000  ekin = 3.39166561935919 |  erot = 4.17733332042877 | epot = -13.1974708625298 | etot = -5.62847192274187
505000  ekin = 3.33344269448186 |  erot = 4.32266370127501 | epot = -13.2845783188899 | etot = -5.62847192313305
506000  ekin = 3.26726906276714 |  erot = 4.45157764163858 | epot = -13.3473186278061 | etot = -5.62847192340042
507000  ekin = 3.19388361646914 |  erot = 4.55898983229276 | epot = -13.3813453722482 | etot = -5.62847192348634
508000  ekin = 3.11462724046896 |  erot = 4.64207406471879 | epot = -13.3851732285235 | etot = -5.62847192333573
509000  ekin = 3.03154551888787 |  erot = 4.70083202643617 | epot = -13.360849468281 | etot = -5.62847192295693
510000  ekin = 2.94513058610933 |  erot = 4.73730594221651 | epot = -13.310908450813 | etot = -5.62847192248715
511000  ekin = 2.85640718494568 |  erot = 4.75516581381877 | epot = -13.2400449206869 | etot = -5.62847192192248
512000  ekin = 2.76854482526012 |  erot = 4.7596299152217 | epot = -13.1566466618477 | etot = -5.62847192136584
513000  ekin = 2.68465921484864 |  erot = 4.7559951319263 | epot = -13.0691262676745 | etot = -5.62847192089958
514000  ekin = 2.60745568316757 |  erot = 4.74870168657442 | epot = -12.9846292903262 | etot = -5.6284719205842
515000  ekin = 2.53899080267389 |  erot = 4.74082869235461 | epot = -12.9082914154352 | etot = -5.62847192040671
516000  ekin = 2.48057862900724 |  erot = 4.73416754059042 | epot = -12.8432180899555 | etot = -5.62847192035787
517000  ekin = 2.4328129902476 |  erot = 4.72933651067198 | epot = -12.790621421324 | etot = -5.62847192040438
518000  ekin = 2.39567246205542 |  erot = 4.72611868188603 | epot = -12.7502630644474 | etot = -5.62847192050597
519000  ekin = 2.36868008082367 |  erot = 4.72386163451503 | epot = -12.7210136359605 | etot = -5.62847192062181
520000  ekin = 2.35109068036686 |  erot = 4.72186744269547 | epot = -12.7014300437782 | etot = -5.62847192071591
521000  ekin = 2.34207426128758 |  erot = 4.71970227692434 | epot = -12.6902484589793 | etot = -5.62847192076741
522000  ekin = 2.34085858401031 |  erot = 4.71735113719129 | epot = -12.6866816419761 | etot = -5.62847192077445
523000  ekin = 2.34541603969355 |  erot = 4.65571671244081 | epot = -12.6296046826176 | etot = -5.62847193048324
524000  ekin = 2.39460269550307 |  erot = 4.54409239652353 | epot = -12.5671670123065 | etot = -5.62847192027993
525000  ekin = 2.51755565362765 |  erot = 4.49060445311917 | epot = -12.6366320324724 | etot = -5.62847192572562
526000  ekin = 2.63891940346164 |  erot = 4.49670026121353 | epot = -12.7640916024617 | etot = -5.62847193778655
527000  ekin = 2.68130557078688 |  erot = 4.50503337370816 | epot = -12.8148108745903 | etot = -5.62847193009531
528000  ekin = 2.71450795009759 |  erot = 4.51098798625648 | epot = -12.8539678665492 | etot = -5.62847193019512
529000  ekin = 2.74727192392152 |  erot = 4.51402301140042 | epot = -12.8897668655871 | etot = -5.62847193026515
530000  ekin = 2.77952118311123 |  erot = 4.51256666250879 | epot = -12.9205597759115 | etot = -5.62847193029145
531000  ekin = 2.81130699774845 |  erot = 4.5055526476598 | epot = -12.9453315756783 | etot = -5.6284719302701
532000  ekin = 2.84274553222417 |  erot = 4.49253106980468 | epot = -12.9637485322388 | etot = -5.62847193020991
533000  ekin = 2.87393313763508 |  erot = 4.47361780234576 | epot = -12.9760228701119 | etot = -5.62847193013102
534000  ekin = 2.90486933800535 |  erot = 4.44928844618023 | epot = -12.9826297142422 | etot = -5.62847193005665
535000  ekin = 2.93541519857329 |  erot = 4.42010482067574 | epot = -12.9839919492516 | etot = -5.62847193000255
536000  ekin = 2.96529830139079 |  erot = 4.38649798398831 | epot = -12.9802682153522 | etot = -5.62847192997313
537000  ekin = 2.9941546714182 |  erot = 4.34867665840371 | epot = -12.9713032597753 | etot = -5.62847192995337
538000  ekin = 3.02158801639842 |  erot = 4.30669342614474 | epot = -12.9567533724963 | etot = -5.62847192995311
539000  ekin = 3.04722844363819 |  erot = 4.2604895191054 | epot = -12.9361898926927 | etot = -5.6284719299491
540000  ekin = 3.07077963634278 |  erot = 4.21000980484813 | epot = -12.9092613711231 | etot = -5.62847192993215
541000  ekin = 3.09204730607341 |  erot = 4.15535061591943 | epot = -12.8758698518903 | etot = -5.6284719298975
542000  ekin = 3.11094831324382 |  erot = 4.09682671845057 | epot = -12.8362469615388 | etot = -5.62847192984437
543000  ekin = 3.12750284874003 |  erot = 4.03499383137339 | epot = -12.7909686098895 | etot = -5.62847192977604
544000  ekin = 3.1418123390953 |  erot = 3.97062692626599 | epot = -12.7409111950625 | etot = -5.62847192970125
545000  ekin = 3.15402369270051 |  erot = 3.90462208422298 | epot = -12.6871177065517 | etot = -5.62847192962817
546000  ekin = 3.16427777369504 |  erot = 3.83809465732486 | epot = -12.6308443605799 | etot = -5.62847192955998
547000  ekin = 3.17263245307472 |  erot = 3.77248542242015 | epot = -12.5735898050277 | etot = -5.62847192953287
548000  ekin = 3.17905114120053 |  erot = 3.70842416479558 | epot = -12.5159472355362 | etot = -5.6284719295401
549000  ekin = 3.18335924844542 |  erot = 3.64619443426883 | epot = -12.4580256122544 | etot = -5.62847192954018
550000  ekin = 3.18506506651725 |  erot = 3.58603484432218 | epot = -12.3995718404936 | etot = -5.62847192965413
551000  ekin = 3.18354118857537 |  erot = 3.52751972617903 | epot = -12.3395328445472 | etot = -5.62847192979281
552000  ekin = 3.17814056090804 |  erot = 3.4697331723235 | epot = -12.2763456631657 | etot = -5.62847192993421
553000  ekin = 3.16816249038078 |  erot = 3.41187716296918 | epot = -12.2085115833954 | etot = -5.62847193004543
554000  ekin = 3.15297464045837 |  erot = 3.35363386896271 | epot = -12.13508043951 | etot = -5.62847193008894
555000  ekin = 3.13218065530892 |  erot = 3.29554931595562 | epot = -12.0562019012951 | etot = -5.62847193003054
556000  ekin = 3.10581995730911 |  erot = 3.2393289045889 | epot = -11.9736207917452 | etot = -5.62847192984723
557000  ekin = 3.0745788388434 |  erot = 3.18795403312285 | epot = -11.8910048014979 | etot = -5.62847192953169
558000  ekin = 3.03998262638982 |  erot = 3.14553707340799 | epot = -11.8139916289078 | etot = -5.62847192910999
559000  ekin = 3.00450378969359 |  erot = 3.11693712841834 | epot = -11.7499128466941 | etot = -5.62847192858214
560000  ekin = 2.97145203605779 |  erot = 3.1075818199102 | epot = -11.7075057839918 | etot = -5.62847192802377
561000  ekin = 2.94451934083844 |  erot = 3.12267269758631 | epot = -11.6956639659902 | etot = -5.62847192756548
562000  ekin = 2.92714140937895 |  erot = 3.16633554926613 | epot = -11.7219488858944 | etot = -5.62847192724937
563000  ekin = 2.92206147604531 |  erot = 3.24077054357517 | epot = -11.7913039468212 | etot = -5.62847192720067
564000  ekin = 2.93031627631538 |  erot = 3.34563410958337 | epot = -11.9044223134 | etot = -5.62847192750123
565000  ekin = 2.95068712266629 |  erot = 3.47751232965051 | epot = -12.056671380472 | etot = -5.62847192815522
566000  ekin = 2.97962685494273 |  erot = 3.62985521358391 | epot = -12.2379539976529 | etot = -5.62847192912631
567000  ekin = 3.0117159354778 |  erot = 3.79324477340328 | epot = -12.4334326391977 | etot = -5.62847193031664
568000  ekin = 3.04054477419807 |  erot = 3.95610049176957 | epot = -12.6251171975566 | etot = -5.62847193158892
569000  ekin = 3.05981811052588 |  erot = 4.10576505740137 | epot = -12.7940551007113 | etot = -5.62847193278405
570000  ekin = 3.06446758272808 |  erot = 4.22987220717975 | epot = -12.9228117236501 | etot = -5.62847193374227
571000  ekin = 3.05159191018281 |  erot = 4.31782950117135 | epot = -12.997893345681 | etot = -5.62847193432683
572000  ekin = 3.02108996818861 |  erot = 4.36217384054216 | epot = -13.0117357431798 | etot = -5.62847193444904
573000  ekin = 2.97589592627996 |  erot = 4.35953364460974 | epot = -12.9639015049773 | etot = -5.62847193408758
574000  ekin = 2.9217726093117 |  erot = 4.31098813662622 | epot = -12.8612326792374 | etot = -5.62847193329946
575000  ekin = 2.86675845130737 |  erot = 4.22206447619194 | epot = -12.7172948575383 | etot = -5.62847193003896
576000  ekin = 2.82238695029824 |  erot = 4.11002108715088 | epot = -12.5608799669673 | etot = -5.62847192951816
577000  ekin = 2.7958602127409 |  erot = 3.98405314247836 | epot = -12.4083852843073 | etot = -5.62847192908802
578000  ekin = 2.79062678635432 |  erot = 3.84816173913045 | epot = -12.2672604543336 | etot = -5.6284719288488
579000  ekin = 2.80727876751827 |  erot = 3.70630768409663 | epot = -12.1420583804475 | etot = -5.6284719288326
580000  ekin = 2.84308800271884 |  erot = 3.56147502233356 | epot = -12.0330349543519 | etot = -5.62847192929946
581000  ekin = 2.89275945157226 |  erot = 3.41677708046804 | epot = -11.9380084614142 | etot = -5.62847192937392
582000  ekin = 2.94948274087892 |  erot = 3.27852635638165 | epot = -11.8564810267041 | etot = -5.62847192944353
583000  ekin = 3.00600312771735 |  erot = 3.15339507873016 | epot = -11.7878701358747 | etot = -5.6284719294272
584000  ekin = 3.05615870295593 |  erot = 3.04800743037604 | epot = -11.7326380626346 | etot = -5.62847192930258
585000  ekin = 3.09596263903451 |  erot = 2.96828908155705 | epot = -11.6927236496842 | etot = -5.62847192909264
586000  ekin = 3.12407298196177 |  erot = 2.91878541590715 | epot = -11.6713303266973 | etot = -5.62847192882836
587000  ekin = 3.14174614219398 |  erot = 2.90225430092866 | epot = -11.6724723716614 | etot = -5.62847192853877
588000  ekin = 3.15240031621594 |  erot = 2.91960613640628 | epot = -11.7004783808846 | etot = -5.62847192826235
589000  ekin = 3.1608180825628 |  erot = 2.97006448169389 | epot = -11.7593544922982 | etot = -5.62847192804154
590000  ekin = 3.17204827384433 |  erot = 3.05134069920111 | epot = -11.8518609009627 | etot = -5.62847192791727
591000  ekin = 3.19150299837335 |  erot = 3.16015018722573 | epot = -11.9801251135932 | etot = -5.62847192799413
592000  ekin = 3.22264872299504 |  erot = 3.29204057503958 | epot = -12.1431612263538 | etot = -5.62847192831917
593000  ekin = 3.26585695458868 |  erot = 3.44092346923842 | epot = -12.3352523526874 | etot = -5.62847192886033
594000  ekin = 3.31918005189476 |  erot = 3.59965335585611 | epot = -12.5473053373169 | etot = -5.628471929566
595000  ekin = 3.37897127075392 |  erot = 3.76045843924913 | epot = -12.7679016402943 | etot = -5.6284719302912
596000  ekin = 3.4382406857058 |  erot = 3.91359738308262 | epot = -12.9803100014148 | etot = -5.62847193262641
597000  ekin = 3.48744876789776 |  erot = 4.04782437842994 | epot = -13.1637450795879 | etot = -5.62847193326017
598000  ekin = 3.52187002161832 |  erot = 4.15698580407354 | epot = -13.3073277593064 | etot = -5.6284719336145
599000  ekin = 3.53831455064212 |  erot = 4.23767846692142 | epot = -13.4044649512497 | etot = -5.62847193368613
600000  ekin = 3.53510970422393 |  erot = 4.28920847085415 | epot = -13.4527901085962 | etot = -5.62847193351813
601000  ekin = 3.5119104181063 |  erot = 4.31320178174506 | epot = -13.4535841330316 | etot = -5.62847193318023
602000  ekin = 3.46937521139643 |  erot = 4.31295152718488 | epot = -13.4107986713281 | etot = -5.62847193274682
603000  ekin = 3.40882221235391 |  erot = 4.29270411906484 | epot = -13.3299982636983 | etot = -5.62847193227954
604000  ekin = 3.33194570977349 |  erot = 4.25705245841491 | epot = -13.2174701000072 | etot = -5.62847193181877
605000  ekin = 3.24062643784182 |  erot = 4.21052248015134 | epot = -13.0796208493778 | etot = -5.62847193138464
606000  ekin = 3.13683319323896 |  erot = 4.15735875773175 | epot = -12.9226638819519 | etot = -5.6284719309812
607000  ekin = 3.02259481109674 |  erot = 4.101467037497 | epot = -12.7525337791962 | etot = -5.62847193060245
608000  ekin = 2.90001652262165 |  erot = 4.04645475134041 | epot = -12.5749432042003 | etot = -5.62847193023821
609000  ekin = 2.77131728811589 |  erot = 3.9957146075872 | epot = -12.3955038255815 | etot = -5.62847192987838
610000  ekin = 2.63886938894953 |  erot = 3.95250622969424 | epot = -12.2198475481603 | etot = -5.62847192951655
611000  ekin = 2.50524882255436 |  erot = 3.92003293756696 | epot = -12.0537536889843 | etot = -5.62847192886299
612000  ekin = 2.37382087286313 |  erot = 3.90218869832648 | epot = -11.9044814997237 | etot = -5.62847192853414
613000  ekin = 2.24769613367011 |  erot = 3.90186788728179 | epot = -11.778035949177 | etot = -5.62847192822512
614000  ekin = 2.12975142865246 |  erot = 3.9210306209287 | epot = -11.6792539775594 | etot = -5.62847192797822
615000  ekin = 2.02283676464004 |  erot = 3.96080056806278 | epot = -11.6121092605313 | etot = -5.62847192782844
616000  ekin = 1.92967019041136 |  erot = 4.02099162161691 | epot = -11.5791337398369 | etot = -5.62847192780867
617000  ekin = 1.85273791852694 |  erot = 4.0997447438237 | epot = -11.5809545902986 | etot = -5.62847192794796
618000  ekin = 1.7942029628239 |  erot = 4.19322703601295 | epot = -11.6159019270968 | etot = -5.62847192825993
619000  ekin = 1.75583197411436 |  erot = 4.2955260662714 | epot = -11.6798299691152 | etot = -5.62847192872943
620000  ekin = 1.73895870077086 |  erot = 4.39891672357491 | epot = -11.7663473536481 | etot = -5.62847192930233
621000  ekin = 1.74449834690829 |  erot = 4.49462250652757 | epot = -11.8675927833235 | etot = -5.62847192988767
622000  ekin = 1.77300875698449 |  erot = 4.57403518084588 | epot = -11.9755158682095 | etot = -5.62847193037914
623000  ekin = 1.824766266339 |  erot = 4.63011744394992 | epot = -12.083355640981 | etot = -5.62847193069207
624000  ekin = 1.89980556060435 |  erot = 4.65854151400644 | epot = -12.1868190054062 | etot = -5.62847193079546
625000  ekin = 1.99788930968438 |  erot = 4.65817060175051 | epot = -12.2845318421526 | etot = -5.6284719307177
626000  ekin = 2.11841938965475 |  erot = 4.63077870103997 | epot = -12.3776700212204 | etot = -5.62847193052568
627000  ekin = 2.26034340454964 |  erot = 4.580242684116 | epot = -12.4690580189547 | etot = -5.62847193028904
628000  ekin = 2.42211143935011 |  erot = 4.51161612070288 | epot = -12.562199490115 | etot = -5.62847193006198
629000  ekin = 2.6004766936327 |  erot = 4.43316974526194 | epot = -12.662118368296 | etot = -5.62847192940135
630000  ekin = 2.75035748944709 |  erot = 4.31003905756444 | epot = -12.6888685127157 | etot = -5.62847196570419
631000  ekin = 2.81471524084495 |  erot = 4.11774535997751 | epot = -12.5609325365831 | etot = -5.6284719357606
632000  ekin = 2.95867552172269 |  erot = 4.07926707227474 | epot = -12.6664145268653 | etot = -5.62847193286784
633000  ekin = 3.21010693557724 |  erot = 4.20581326844458 | epot = -13.0443921660959 | etot = -5.62847196207412
634000  ekin = 3.41641131459937 |  erot = 4.25928215940977 | epot = -13.304165410377 | etot = -5.62847193636786
635000  ekin = 3.57385274041705 |  erot = 4.24018711612359 | epot = -13.442511793679 | etot = -5.62847193713833
636000  ekin = 3.71894531166919 |  erot = 4.21896102714631 | epot = -13.56637827679 | etot = -5.62847193797455
637000  ekin = 3.84555962832216 |  erot = 4.19009539004591 | epot = -13.6641269570379 | etot = -5.62847193866988
638000  ekin = 3.94874232719414 |  erot = 4.14881281939171 | epot = -13.7260270856245 | etot = -5.62847193903865
639000  ekin = 4.0256465320869 |  erot = 4.09271382133864 | epot = -13.7468322924302 | etot = -5.62847193900464
640000  ekin = 4.0758255138708 |  erot = 4.02260436133946 | epot = -13.7269018138273 | etot = -5.62847193861705
641000  ekin = 4.10019063794859 |  erot = 3.94203419582063 | epot = -13.670696772233 | etot = -5.62847193846376
642000  ekin = 4.09923586033097 |  erot = 3.85569636526379 | epot = -13.5834041634795 | etot = -5.62847193788472
643000  ekin = 4.07616080025001 |  erot = 3.76850329648798 | epot = -13.4731360340985 | etot = -5.62847193736047
644000  ekin = 4.03483546356576 |  erot = 3.68428538425837 | epot = -13.3475927847703 | etot = -5.62847193694614
645000  ekin = 3.97939693588714 |  erot = 3.60521279259007 | epot = -13.213081665102 | etot = -5.62847193662475
646000  ekin = 3.91424157449444 |  erot = 3.53197746525875 | epot = -13.0746909760953 | etot = -5.62847193634212
647000  ekin = 3.8441210840954 |  erot = 3.46430751183515 | epot = -12.9369005321139 | etot = -5.62847193618333
648000  ekin = 3.77442093502487 |  erot = 3.40030625105638 | epot = -12.8031991219469 | etot = -5.62847193586566
649000  ekin = 3.71064844450052 |  erot = 3.33902116865761 | epot = -12.6781415487018 | etot = -5.62847193554367
650000  ekin = 3.65777289002371 |  erot = 3.28036981763506 | epot = -12.5666146429299 | etot = -5.62847193527116
651000  ekin = 3.61962254783388 |  erot = 3.22458240433957 | epot = -12.4726768872679 | etot = -5.62847193509444
652000  ekin = 3.59838867001631 |  erot = 3.17201593040055 | epot = -12.398876535449 | etot = -5.62847193503212
653000  ekin = 3.59447660069553 |  erot = 3.12302902480968 | epot = -12.3459775605724 | etot = -5.62847193506718
654000  ekin = 3.60674141921958 |  erot = 3.07797678359902 | epot = -12.3131901379783 | etot = -5.6284719351597
655000  ekin = 3.63298841307053 |  erot = 3.03728497064157 | epot = -12.298745318983 | etot = -5.62847193527091
[...]
838000  ekin = 3.26467977435802 |  erot = 2.97489018852013 | epot = -11.8680419321543 | etot = -5.62847196927615
839000  ekin = 3.39062362545559 |  erot = 2.97696578652376 | epot = -11.996061381704 | etot = -5.62847196972461
840000  ekin = 3.50719614570626 |  erot = 2.97513773226677 | epot = -12.1108058481022 | etot = -5.62847197012915
841000  ekin = 3.60951430749055 |  erot = 2.96792302405263 | epot = -12.2059093020209 | etot = -5.62847197047776
842000  ekin = 3.69330308648575 |  erot = 2.95419217236914 | epot = -12.2759672296123 | etot = -5.62847197075745
843000  ekin = 3.75502928297388 |  erot = 2.93326272737143 | epot = -12.3167639812967 | etot = -5.62847197095137
844000  ekin = 3.79205095946339 |  erot = 2.90501003037866 | epot = -12.3255329608818 | etot = -5.62847197103979
845000  ekin = 3.80278827131397 |  erot = 2.86997708075957 | epot = -12.3012373230777 | etot = -5.62847197100414
846000  ekin = 3.78689078473018 |  erot = 2.82944606906542 | epot = -12.2448088246294 | etot = -5.62847197083384
847000  ekin = 3.74534923822606 |  erot = 2.78543387664178 | epot = -12.1592550854002 | etot = -5.6284719705324
848000  ekin = 3.68048960940421 |  erot = 2.74058490900101 | epot = -12.0495464885273 | etot = -5.6284719701221
849000  ekin = 3.59580402272306 |  erot = 2.69795473158828 | epot = -11.9222307239567 | etot = -5.6284719696454
850000  ekin = 3.4956121097583 |  erot = 2.6606982599582 | epot = -11.7847823388723 | etot = -5.62847196915575
851000  ekin = 3.38460421107508 |  erot = 2.63169878710479 | epot = -11.6447749668908 | etot = -5.62847196871096
852000  ekin = 3.26735834540479 |  erot = 2.61319105227254 | epot = -11.5090213660375 | etot = -5.62847196836017
853000  ekin = 3.14792970720325 |  erot = 2.60644045740192 | epot = -11.3828421327373 | etot = -5.62847196813209
854000  ekin = 3.02961721362503 |  erot = 2.61155167527422 | epot = -11.2696408569259 | etot = -5.62847196802667
855000  ekin = 2.91497870504078 |  erot = 2.62749311755647 | epot = -11.1709437906198 | etot = -5.62847196802256
856000  ekin = 2.80592683492894 |  erot = 2.65229723411133 | epot = -11.0866960371206 | etot = -5.62847196808031
857000  ekin = 2.70394322948545 |  erot = 2.68342637056843 | epot = -11.015841568212 | etot = -5.6284719681581
858000  ekin = 2.61028084852825 |  erot = 2.71820874414137 | epot = -10.9569615608915 | etot = -5.6284719682219
859000  ekin = 2.52608469509649 |  erot = 2.75423459857475 | epot = -10.9087912619257 | etot = -5.62847196825449
860000  ekin = 2.45241725154069 |  erot = 2.78962480139511 | epot = -10.8705140211892 | etot = -5.62847196825344
861000  ekin = 2.39021948133373 |  erot = 2.82313150385948 | epot = -10.8418229534218 | etot = -5.62847196822859
862000  ekin = 2.34025129352414 |  erot = 2.85407946445822 | epot = -10.8228027261784 | etot = -5.62847196819607
863000  ekin = 2.30304188633547 |  erot = 2.88219277714087 | epot = -10.8137066316498 | etot = -5.62847196817344
864000  ekin = 2.27886005861002 |  erot = 2.90737073962261 | epot = -10.8147027664085 | etot = -5.62847196817589
865000  ekin = 2.26770197022622 |  erot = 2.92947677566462 | epot = -10.8256507141041 | etot = -5.62847196821323
866000  ekin = 2.26929189066329 |  erot = 2.94819404334176 | epot = -10.8459579022924 | etot = -5.62847196828738
867000  ekin = 2.28309241982949 |  erot = 2.96298089391294 | epot = -10.8745452821342 | etot = -5.62847196839182
868000  ekin = 2.30832281454544 |  erot = 2.97313399161156 | epot = -10.9099287746706 | etot = -5.62847196851362
869000  ekin = 2.34398134894943 |  erot = 2.97793980578067 | epot = -10.9503931233667 | etot = -5.6284719686366
870000  ekin = 2.38886744467438 |  erot = 2.97686809836169 | epot = -10.9942075117828 | etot = -5.62847196874675
871000  ekin = 2.44159861491358 |  erot = 2.96974175411027 | epot = -11.0398123378612 | etot = -5.62847196883734
872000  ekin = 2.50061961268428 |  erot = 2.95681803653585 | epot = -11.0859096181305 | etot = -5.62847196891038
873000  ekin = 2.56420807785167 |  erot = 2.9387461399414 | epot = -11.1314261867686 | etot = -5.62847196897549
874000  ekin = 2.63049126656055 |  erot = 2.91641905693039 | epot = -11.1753822925339 | etot = -5.62847196904297
875000  ekin = 2.69749664068813 |  erot = 2.89079068899551 | epot = -11.2167592987987 | etot = -5.62847196911506
876000  ekin = 2.76325740491356 |  erot = 2.86275138442079 | epot = -11.2544807585147 | etot = -5.62847196918037
877000  ekin = 2.82597856676831 |  erot = 2.83312911491244 | epot = -11.2875796508952 | etot = -5.62847196921445
878000  ekin = 2.8842650564144 |  erot = 2.8028295989707 | epot = -11.3155666245239 | etot = -5.62847196913884
879000  ekin = 2.93899285100772 |  erot = 2.77402557557721 | epot = -11.3414903954987 | etot = -5.62847196891378
880000  ekin = 2.99074429089297 |  erot = 2.74904466205919 | epot = -11.3682609218963 | etot = -5.62847196894413
881000  ekin = 3.03734868576506 |  erot = 2.72816457901237 | epot = -11.3939852335601 | etot = -5.62847196878267
882000  ekin = 3.07935285927269 |  erot = 2.71303253339623 | epot = -11.420857361285 | etot = -5.62847196861606
883000  ekin = 3.11756796684251 |  erot = 2.70517731685193 | epot = -11.4512172521769 | etot = -5.62847196848248
884000  ekin = 3.15280252448805 |  erot = 2.70569769465515 | epot = -11.4869721875509 | etot = -5.62847196840767
885000  ekin = 3.18571612806022 |  erot = 2.71504911424171 | epot = -11.5292372107068 | etot = -5.62847196840488
886000  ekin = 3.21676772987918 |  erot = 2.7329057996515 | epot = -11.5781454980096 | etot = -5.62847196847895
887000  ekin = 3.24623562023326 |  erot = 2.75806669027504 | epot = -11.6327742791418 | etot = -5.62847196863354
888000  ekin = 3.27425941609772 |  erot = 2.78837179619814 | epot = -11.6911031811679 | etot = -5.62847196887207
889000  ekin = 3.30086478482316 |  erot = 2.82064068460476 | epot = -11.7499774386207 | etot = -5.62847196919278
890000  ekin = 3.32596924463501 |  erot = 2.85071439959411 | epot = -11.8051556138036 | etot = -5.62847196957444
891000  ekin = 3.3494125282852 |  erot = 2.87373382380832 | epot = -11.8516183220572 | etot = -5.62847196996371
892000  ekin = 3.37107523148685 |  erot = 2.88476437079868 | epot = -11.8843115725589 | etot = -5.62847197027341
893000  ekin = 3.39111184688682 |  erot = 2.87974242709439 | epot = -11.8993262443867 | etot = -5.6284719704055
894000  ekin = 3.41023212495997 |  erot = 2.85650829478111 | epot = -11.8952123900316 | etot = -5.62847197029052
895000  ekin = 3.4298773044051 |  erot = 2.815534994611 | epot = -11.873884268943 | etot = -5.62847196992692
896000  ekin = 3.45214148539516 |  erot = 2.76001213099929 | epot = -11.8406255857806 | etot = -5.62847196938615
897000  ekin = 3.47941735170433 |  erot = 2.69521466328687 | epot = -11.8031039837763 | etot = -5.6284719687851
898000  ekin = 3.51352961574995 |  erot = 2.62737086658634 | epot = -11.7693724637474 | etot = -5.62847198141107
899000  ekin = 3.48893910775265 |  erot = 2.56291213975406 | epot = -11.6803232169643 | etot = -5.62847196945757
900000  ekin = 3.45535688818203 |  erot = 2.55015985138601 | epot = -11.6339887019212 | etot = -5.62847196235312
901000  ekin = 3.50186287808579 |  erot = 2.58894159181229 | epot = -11.7192764456784 | etot = -5.62847197578037
902000  ekin = 3.56610213303399 |  erot = 2.58196928390185 | epot = -11.7765433894917 | etot = -5.62847197255586
903000  ekin = 3.62814875665086 |  erot = 2.56232070082707 | epot = -11.8189414304078 | etot = -5.62847197292984
904000  ekin = 3.69112394759926 |  erot = 2.55247638154218 | epot = -11.8720723025581 | etot = -5.62847197341668
905000  ekin = 3.75091280739105 |  erot = 2.54985569435745 | epot = -11.9292404756736 | etot = -5.62847197392512
906000  ekin = 3.80322507231523 |  erot = 2.55191272200766 | epot = -11.983609768675 | etot = -5.62847197435207
907000  ekin = 3.84434229801945 |  erot = 2.556833602572 | epot = -12.0296478752021 | etot = -5.62847197461066
908000  ekin = 3.8719006546809 |  erot = 2.56394104499449 | epot = -12.0643136743348 | etot = -5.62847197465944
909000  ekin = 3.88547928878195 |  erot = 2.57365300874838 | epot = -12.0876042720447 | etot = -5.62847197451439
910000  ekin = 3.88680452646005 |  erot = 2.58702435411966 | epot = -12.1023008548182 | etot = -5.62847197423844
911000  ekin = 3.87951722070146 |  erot = 2.60508795944877 | epot = -12.1130771540629 | etot = -5.62847197391266
912000  ekin = 3.86859235434375 |  erot = 2.6282770095639 | epot = -12.1253413375198 | etot = -5.62847197361211
913000  ekin = 3.8595591487825 |  erot = 2.65612234480454 | epot = -12.1441534669803 | etot = -5.62847197339323
914000  ekin = 3.85765975589875 |  erot = 2.6872590430433 | epot = -12.1733907716306 | etot = -5.62847197268852
915000  ekin = 3.86988559776436 |  erot = 2.72155495361331 | epot = -12.2199125242428 | etot = -5.62847197286515
916000  ekin = 3.89721211471891 |  erot = 2.7589919901686 | epot = -12.2846760781584 | etot = -5.62847197327088
917000  ekin = 3.93597306199232 |  erot = 2.79756615775499 | epot = -12.3620111934579 | etot = -5.62847197371058
918000  ekin = 3.98211349071209 |  erot = 2.83523642920087 | epot = -12.445821894069 | etot = -5.62847197415608
919000  ekin = 4.03109883330359 |  erot = 2.86939982172013 | epot = -12.5289706306088 | etot = -5.62847197558503
920000  ekin = 4.07575005575862 |  erot = 2.89203458432419 | epot = -12.5962566159859 | etot = -5.62847197590306
921000  ekin = 4.11121318710369 |  erot = 2.89963705232273 | epot = -12.6393222160693 | etot = -5.62847197664286
922000  ekin = 4.12946327630654 |  erot = 2.89101490907202 | epot = -12.6489501622928 | etot = -5.62847197691426
923000  ekin = 4.12574550234431 |  erot = 2.86656719848127 | epot = -12.620784677725 | etot = -5.62847197689942
924000  ekin = 4.09806254513819 |  erot = 2.82817436998087 | epot = -12.5547088917556 | etot = -5.62847197663653
925000  ekin = 4.04683812166633 |  erot = 2.77889166306915 | epot = -12.4542017609597 | etot = -5.62847197622421
926000  ekin = 3.97415980252715 |  erot = 2.72240486006871 | epot = -12.3250366383651 | etot = -5.62847197576919
927000  ekin = 3.88290109342078 |  erot = 2.66247240126481 | epot = -12.1738454700187 | etot = -5.62847197533309
928000  ekin = 3.77619172642679 |  erot = 2.60258197990616 | epot = -12.007245681246 | etot = -5.62847197491311
929000  ekin = 3.65741734246575 |  erot = 2.54590497139298 | epot = -11.8317942883237 | etot = -5.62847197446502
930000  ekin = 3.5305633186492 |  erot = 2.49545264343071 | epot = -11.6544879360264 | etot = -5.62847197394645
931000  ekin = 3.40054526505241 |  erot = 2.4542928572998 | epot = -11.4833100953882 | etot = -5.62847197303597
932000  ekin = 3.27351307943858 |  erot = 2.42812143640462 | epot = -11.3301064884805 | etot = -5.62847197263735
933000  ekin = 3.15479413426184 |  erot = 2.4201742941005 | epot = -11.2034404005977 | etot = -5.62847197223538
934000  ekin = 3.04934557744084 |  erot = 2.43124950257842 | epot = -11.1090670519024 | etot = -5.62847197188314
935000  ekin = 2.96178383143456 |  erot = 2.46165171830122 | epot = -11.0519075213609 | etot = -5.62847197162516
936000  ekin = 2.89581269665377 |  erot = 2.51113391228593 | epot = -11.0354185804264 | etot = -5.62847197148675
937000  ekin = 2.85385879643587 |  erot = 2.57889785844567 | epot = -11.0612286263547 | etot = -5.62847197147316
938000  ekin = 2.83694342984074 |  erot = 2.66364815753117 | epot = -11.1290635589445 | etot = -5.62847197157262
939000  ekin = 2.84476696099552 |  erot = 2.76369076082634 | epot = -11.2369296935822 | etot = -5.62847197176037
940000  ekin = 2.87595320234075 |  erot = 2.87707537105914 | epot = -11.3815005454017 | etot = -5.62847197200179
941000  ekin = 2.92838857835224 |  erot = 3.00178158874278 | epot = -11.5586421393538 | etot = -5.62847197225876
942000  ekin = 2.99958691127124 |  erot = 3.13593594611884 | epot = -11.7639948298858 | etot = -5.62847197249573
943000  ekin = 3.08701485717038 |  erot = 3.27802583202606 | epot = -11.9935126618834 | etot = -5.62847197268699
944000  ekin = 3.18658686858738 |  erot = 3.42629434969532 | epot = -12.2413531921784 | etot = -5.62847197389566
945000  ekin = 3.29120911865057 |  erot = 3.57701252781639 | epot = -12.4966936208827 | etot = -5.62847197441577
946000  ekin = 3.39621217215963 |  erot = 3.72637388885848 | epot = -12.7510580360271 | etot = -5.62847197500898
947000  ekin = 3.49687303012915 |  erot = 3.86977320855342 | epot = -12.9951182143821 | etot = -5.62847197569952
948000  ekin = 3.58827211265385 |  erot = 4.00151346791145 | epot = -13.2182575570542 | etot = -5.6284719764889
949000  ekin = 3.66536645628526 |  erot = 4.11475106241143 | epot = -13.4085894960377 | etot = -5.62847197734096
950000  ekin = 3.72323942268016 |  erot = 4.20180192099888 | epot = -13.5535133218533 | etot = -5.62847197817422
951000  ekin = 3.7575418606239 |  erot = 4.25489778743302 | epot = -13.6409116269242 | etot = -5.62847197886729
952000  ekin = 3.76507382166585 |  erot = 4.26734584245209 | epot = -13.6608916434006 | etot = -5.62847197928269
953000  ekin = 3.74438822983786 |  erot = 4.23487586222055 | epot = -13.6077360713617 | etot = -5.62847197930327
954000  ekin = 3.69625243645885 |  erot = 4.15681816182222 | epot = -13.4815425771526 | etot = -5.62847197887156
955000  ekin = 3.62380421010025 |  erot = 4.03673172602175 | epot = -13.2890079141367 | etot = -5.62847197801473
956000  ekin = 3.52555337896487 |  erot = 3.88073806179295 | epot = -13.0347634204046 | etot = -5.62847197964678
957000  ekin = 3.39894640406337 |  erot = 3.70474138675171 | epot = -12.7321597654045 | etot = -5.6284719745894
958000  ekin = 3.27782880500116 |  erot = 3.53760737949541 | epot = -12.4439081574628 | etot = -5.62847197296628
959000  ekin = 3.17835029419513 |  erot = 3.38602208222021 | epot = -12.1928443512356 | etot = -5.62847197482031
960000  ekin = 3.0901908870162 |  erot = 3.2350949433539 | epot = -11.9537578068317 | etot = -5.62847197646159
961000  ekin = 3.00426260071149 |  erot = 3.08248134384794 | epot = -11.7152159201101 | etot = -5.62847197555067
962000  ekin = 2.92693480589504 |  erot = 2.94805481552662 | epot = -11.5034615967588 | etot = -5.62847197533712
963000  ekin = 2.85972056140133 |  erot = 2.83488455080445 | epot = -11.3230770872372 | etot = -5.6284719750314
964000  ekin = 2.8042735982345 |  erot = 2.74583973540127 | epot = -11.1785853084888 | etot = -5.628471974853
965000  ekin = 2.76170822234566 |  erot = 2.68249826376371 | epot = -11.0726784609086 | etot = -5.62847197479923
966000  ekin = 2.73254763925453 |  erot = 2.64503833103224 | epot = -11.0060579451646 | etot = -5.6284719748778
967000  ekin = 2.71665521965477 |  erot = 2.63218922321587 | epot = -10.9773164179641 | etot = -5.62847197509342
968000  ekin = 2.71315992167185 |  erot = 2.64124364018657 | epot = -10.9828755372912 | etot = -5.62847197543275
969000  ekin = 2.7204661420948 |  erot = 2.6682586036776 | epot = -11.0171967216306 | etot = -5.62847197585823
970000  ekin = 2.73639578464413 |  erot = 2.70848273771715 | epot = -11.0733504986767 | etot = -5.62847197631542
971000  ekin = 2.75849382598117 |  erot = 2.75695663766327 | epot = -11.1439224403089 | etot = -5.6284719766645
972000  ekin = 2.78540545684382 |  erot = 2.80984083289429 | epot = -11.2237182666753 | etot = -5.62847197693723
973000  ekin = 2.81581408264802 |  erot = 2.86412704285632 | epot = -11.3084131026261 | etot = -5.62847197712173
974000  ekin = 2.84847994469659 |  erot = 2.9176290382437 | epot = -11.3945809601521 | etot = -5.62847197721183
975000  ekin = 2.88260770172285 |  erot = 2.96920773778327 | epot = -11.4802874167159 | etot = -5.62847197720982
976000  ekin = 2.90702476317451 |  erot = 3.01964918449047 | epot = -11.5551459492653 | etot = -5.62847200160027
977000  ekin = 2.82994039840182 |  erot = 3.10467591955926 | epot = -11.5630882958244 | etot = -5.62847197786335
978000  ekin = 2.82908361707914 |  erot = 3.22546637459118 | epot = -11.6830219954015 | etot = -5.62847200373116
979000  ekin = 2.83706100202812 |  erot = 3.25481873483762 | epot = -11.7203517269845 | etot = -5.6284719901188
980000  ekin = 2.83601345238946 |  erot = 3.27042512026661 | epot = -11.7349105628101 | etot = -5.628471990154
981000  ekin = 2.82679467634952 |  erot = 3.27908746569065 | epot = -11.7343541322357 | etot = -5.62847199019551
982000  ekin = 2.80889457230881 |  erot = 3.28090658867537 | epot = -11.7182731512242 | etot = -5.62847199023997
983000  ekin = 2.78208898824264 |  erot = 3.27578647684412 | epot = -11.6863474553529 | etot = -5.62847199026616
984000  ekin = 2.7466013709296 |  erot = 3.26353952928 | epot = -11.6386128904489 | etot = -5.62847199023926
985000  ekin = 2.70333214662665 |  erot = 3.2441139153128 | epot = -11.5759180520618 | etot = -5.6284719901224
986000  ekin = 2.65408913009535 |  erot = 3.21786526990729 | epot = -11.500426389891 | etot = -5.62847198988837
987000  ekin = 2.57871630303961 |  erot = 3.17247278450731 | epot = -11.3796610819269 | etot = -5.62847199437996
988000  ekin = 2.53018928259948 |  erot = 3.15315342750276 | epot = -11.3118147121001 | etot = -5.6284720019979
989000  ekin = 2.49566278724819 |  erot = 3.12952117928357 | epot = -11.2536559585008 | etot = -5.62847199196907
990000  ekin = 2.4622718302896 |  erot = 3.09741758323837 | epot = -11.1881614049419 | etot = -5.6284719914139
991000  ekin = 2.44592299767578 |  erot = 3.07158095549679 | epot = -11.1459759443238 | etot = -5.62847199115121
992000  ekin = 2.45174282072059 |  erot = 3.05611049000222 | epot = -11.1363253016739 | etot = -5.62847199095109
993000  ekin = 2.48099672167099 |  erot = 3.05281518681115 | epot = -11.1622838992797 | etot = -5.62847199079751
994000  ekin = 2.53415670684515 |  erot = 3.0635915491501 | epot = -11.2262202467072 | etot = -5.62847199071192
995000  ekin = 2.61088853712476 |  erot = 3.09015399067417 | epot = -11.3295145185027 | etot = -5.62847199070379
996000  ekin = 2.71011820043119 |  erot = 3.13378299191311 | epot = -11.4723731831197 | etot = -5.62847199077542
997000  ekin = 2.83015603571135 |  erot = 3.19515268175803 | epot = -11.6537807083957 | etot = -5.62847199092635
998000  ekin = 2.96878571845779 |  erot = 3.27423191785094 | epot = -11.8714896274744 | etot = -5.62847199116566
999000  ekin = 3.12322522802835 |  erot = 3.37022005114419 | epot = -12.1219172706923 | etot = -5.62847199151979
1000000  ekin = 3.28990650612767 |  erot = 3.48146011064651 | epot = -12.399838608806 | etot = -5.62847199203181
   1000000   0.14621807    -0.83009398     0.055104069   -0.56937076     4.8223735e-05  64000        
Loop time of 15.3499 on 4 procs for 1000000 steps with 16 atoms

Performance: 56286.829 tau/day, 65146.793 timesteps/s, 1.042 Matom-step/s
99.5% CPU use with 4 MPI tasks x no OpenMP threads

MPI task timing breakdown:
Section |  min time  |  avg time  |  max time  |%varavg| %total
---------------------------------------------------------------
Pair    | 5.0659     | 7.1048     | 8.4152     |  50.8 | 46.29
Bond    | 0.21913    | 0.34688    | 0.42177    |  13.1 |  2.26
Neigh   | 0.00635    | 0.0063733  | 0.006399   |   0.0 |  0.04
Comm    | 4.6567     | 5.9597     | 8.2095     |  58.4 | 38.83
Output  | 0.083486   | 0.10061    | 0.14746    |   8.5 |  0.66
Modify  | 0.53245    | 0.60536    | 0.65575    |   6.6 |  3.94
Other   |            | 1.226      |            |       |  7.99

Nlocal:              4 ave           4 max           4 min
Histogram: 4 0 0 0 0 0 0 0 0 0
Nghost:             12 ave          12 max          12 min
Histogram: 4 0 0 0 0 0 0 0 0 0
Neighs:           26.5 ave          47 max           9 min
Histogram: 1 1 0 0 0 0 1 0 0 1

Total # of neighbors = 106
Ave neighs/atom = 6.625
Ave special neighs/atom = 3.75
Neighbor list builds = 1000
Dangerous builds = 0

write_data last_config.${number}.* nocoeff
write_data last_config.2.* nocoeff
System init for write_data ...
Generated 0 of 6 mixed pair_coeff terms from geometric mixing rule
#write_restart last_config.${number}.*
Total wall time: 0:00:15
