LAMMPS (2 Apr 2025)
variable number	equal 3
variable ofreq	equal 1000
variable efreq	equal 1000
variable T      equal 0.1
variable rhos   equal 0.2

units lj

dimension 3

newton on

boundary  p p p

atom_style hybrid bond ellipsoid oxdna
WARNING: Atom style hybrid defines both, per-type and per-atom masses; both must be set, but only per-atom masses will be used (../atom_vec_hybrid.cpp:132)
atom_modify sort 0 1.0

# Pair interactions require lists of neighbours to be calculated
neighbor 2.0 bin
neigh_modify every 1 delay 0 check yes

read_data data.duplex3
Reading data file ...
  orthogonal box = (-20 -20 -20) to (20 20 20)
  1 by 2 by 2 MPI processor grid
  reading atoms ...
  10 atoms
  reading velocities ...
  10 velocities
  scanning bonds ...
  1 = max bonds/atom
  10 ellipsoids
  orthogonal box = (-20 -20 -20) to (20 20 20)
  1 by 2 by 2 MPI processor grid
  reading bonds ...
  8 bonds
Finding 1-2 1-3 1-4 neighbors ...
  special bond factors lj:    0        0        0       
  special bond factors coul:  0        0        0       
     2 = max # of 1-2 neighbors
     2 = max # of 1-3 neighbors
     2 = max # of 1-4 neighbors
     4 = max # of special neighbors
  special bonds CPU = 0.001 seconds
  read_data CPU = 0.006 seconds

set atom * mass 1.0
Setting atom values ...
  10 settings made for mass

group all type 1 4
10 atoms in group all

# oxDNA2 bond interactions - FENE backbone
bond_style oxdna2/fene
bond_coeff * 2.0 0.25 0.7564
special_bonds lj 0 1 1
Finding 1-2 1-3 1-4 neighbors ...
  special bond factors lj:    0        1        1       
  special bond factors coul:  0        0        0       
     2 = max # of 1-2 neighbors
     2 = max # of 1-3 neighbors
     2 = max # of 1-4 neighbors
     4 = max # of special neighbors
  special bonds CPU = 0.000 seconds

# oxDNA2 pair interactions
pair_style hybrid/overlay oxdna2/excv oxdna2/stk oxdna2/hbond oxdna2/xstk oxdna2/coaxstk oxdna2/dh
pair_coeff * * oxdna2/excv    2.0 0.7 0.675 2.0 0.515 0.5 2.0 0.33 0.32
pair_coeff * * oxdna2/stk     seqdep ${T} 1.3523 2.6717 6.0 0.4 0.9 0.32 0.75 1.3 0 0.8 0.9 0 0.95 0.9 0 0.95 2.0 0.65 2.0 0.65
pair_coeff * * oxdna2/stk     seqdep 0.1 1.3523 2.6717 6.0 0.4 0.9 0.32 0.75 1.3 0 0.8 0.9 0 0.95 0.9 0 0.95 2.0 0.65 2.0 0.65
pair_coeff * * oxdna2/hbond   seqdep 0.0 8.0 0.4 0.75 0.34 0.7 1.5 0 0.7 1.5 0 0.7 1.5 0 0.7 0.46 3.141592653589793 0.7 4.0 1.5707963267948966 0.45 4.0 1.5707963267948966 0.45
pair_coeff 1 4 oxdna2/hbond   seqdep 1.0678 8.0 0.4 0.75 0.34 0.7 1.5 0 0.7 1.5 0 0.7 1.5 0 0.7 0.46 3.141592653589793 0.7 4.0 1.5707963267948966 0.45 4.0 1.5707963267948966 0.45
pair_coeff 2 3 oxdna2/hbond   seqdep 1.0678 8.0 0.4 0.75 0.34 0.7 1.5 0 0.7 1.5 0 0.7 1.5 0 0.7 0.46 3.141592653589793 0.7 4.0 1.5707963267948966 0.45 4.0 1.5707963267948966 0.45
pair_coeff * * oxdna2/xstk    47.5 0.575 0.675 0.495 0.655 2.25 0.791592653589793 0.58 1.7 1.0 0.68 1.7 1.0 0.68 1.5 0 0.65 1.7 0.875 0.68 1.7 0.875 0.68
pair_coeff * * oxdna2/coaxstk 58.5 0.4 0.6 0.22 0.58 2.0 2.891592653589793 0.65 1.3 0 0.8 0.9 0 0.95 0.9 0 0.95 40.0 3.116592653589793
pair_coeff * * oxdna2/dh      ${T} ${rhos} 0.815
pair_coeff * * oxdna2/dh      0.1 ${rhos} 0.815
pair_coeff * * oxdna2/dh      0.1 0.2 0.815

# NVE ensemble
fix 1 all nve/asphere
#fix 2 all langevin ${T} ${T} 2.5 457145 angmom 10

timestep 1e-5

#comm_style tiled
fix 3 all balance 1000 1.03 shift xyz 10 1.03
comm_modify cutoff 3.8

compute quat all property/atom quatw quati quatj quatk

compute erot all erotate/asphere
compute ekin all ke
compute epot all pe
variable erot equal c_erot
variable ekin equal c_ekin
variable epot equal c_epot
variable etot equal c_erot+c_ekin+c_epot
fix 5 all print ${efreq} "$(step)  ekin = ${ekin} |  erot = ${erot} | epot = ${epot} | etot = ${etot}" screen yes
fix 5 all print 1000 "$(step)  ekin = ${ekin} |  erot = ${erot} | epot = ${epot} | etot = ${etot}" screen yes

dump out all custom ${ofreq} out.${number}.lammpstrj id mol type x y z ix iy iz vx vy vz c_quat[1] c_quat[2] c_quat[3] c_quat[4] angmomx angmomy angmomz
dump out all custom 1000 out.${number}.lammpstrj id mol type x y z ix iy iz vx vy vz c_quat[1] c_quat[2] c_quat[3] c_quat[4] angmomx angmomy angmomz
dump out all custom 1000 out.3.lammpstrj id mol type x y z ix iy iz vx vy vz c_quat[1] c_quat[2] c_quat[3] c_quat[4] angmomx angmomy angmomz
dump_modify out sort id
dump_modify out format line "%d %d %d  %22.15le %22.15le %22.15le  %d %d %d  %22.15le %22.15le %22.15le  %22.15le %22.15le %22.15le %22.15le  %22.15le %22.15le %22.15le"

run 1000000
Generated 0 of 6 mixed pair_coeff terms from geometric mixing rule
Neighbor list info ...
  update: every = 1 steps, delay = 0 steps, check = yes
  max neighbors/atom: 2000, page size: 100000
  master list distance cutoff = 5.6389877
  ghost atom cutoff = 5.6389877
  binsize = 2.8194939, bins = 15 15 15
  5 neighbor lists, perpetual/occasional/extra = 5 0 0
  (1) pair oxdna2/excv, perpetual
      attributes: half, newton on
      pair build: half/bin/newton
      stencil: half/bin/3d
      bin: standard
  (2) pair oxdna2/hbond, perpetual, copy from (1)
      attributes: half, newton on
      pair build: copy
      stencil: none
      bin: none
  (3) pair oxdna2/xstk, perpetual, copy from (1)
      attributes: half, newton on
      pair build: copy
      stencil: none
      bin: none
  (4) pair oxdna2/coaxstk, perpetual, copy from (1)
      attributes: half, newton on
      pair build: copy
      stencil: none
      bin: none
  (5) pair oxdna2/dh, perpetual, copy from (1)
      attributes: half, newton on
      pair build: copy
      stencil: none
      bin: none
WARNING: Communication cutoff adjusted to 5.638987723814633 (../comm.cpp:753)
0  ekin = 1.18025158324274 |  erot = 2.17908479136507 | epot = -11.4931199991265 | etot = -8.13378362451868
Per MPI rank memory allocation (min/avg/max) = 7.505 | 7.506 | 7.507 Mbytes
   Step          Temp          E_pair         E_mol          TotEng         Press          Volume    
         0   0.087426043   -1.2259004      0.076588446   -1.0312868     -7.7802026e-06  64000        
1000  ekin = 1.08696491147664 |  erot = 2.23197650714075 | epot = -11.452725042513 | etot = -8.13378362389561
2000  ekin = 1.01265115460251 |  erot = 2.29132031278141 | epot = -11.4377550908153 | etot = -8.13378362343137
3000  ekin = 0.964951920610342 |  erot = 2.35614244814783 | epot = -11.4548779921655 | etot = -8.1337836234073
4000  ekin = 0.945861179227058 |  erot = 2.42482489276794 | epot = -11.5044696957622 | etot = -8.13378362376716
5000  ekin = 0.952186940161504 |  erot = 2.49508744948286 | epot = -11.5810580140497 | etot = -8.13378362440532
6000  ekin = 0.976836955567209 |  erot = 2.56435791368455 | epot = -11.6749784943528 | etot = -8.13378362510107
7000  ekin = 1.01151727363088 |  erot = 2.63034980765841 | epot = -11.7756507069156 | etot = -8.13378362562632
8000  ekin = 1.0496376888688 |  erot = 2.69159648304404 | epot = -11.8750177977506 | etot = -8.13378362583778
9000  ekin = 1.08831406483909 |  erot = 2.74768757650641 | epot = -11.9697852671577 | etot = -8.13378362581222
10000  ekin = 1.12769894654419 |  erot = 2.79881902231422 | epot = -12.0603015945015 | etot = -8.1337836256431
11000  ekin = 1.16997706279087 |  erot = 2.84539220453506 | epot = -12.1491528928088 | etot = -8.13378362548291
12000  ekin = 1.21772825403559 |  erot = 2.88753582693545 | epot = -12.2390477064188 | etot = -8.13378362544779
13000  ekin = 1.2724727764863 |  erot = 2.9247842393138 | epot = -12.3310406413904 | etot = -8.13378362559027
14000  ekin = 1.33384628320075 |  erot = 2.95599632290765 | epot = -12.4236262320194 | etot = -8.133783625911
15000  ekin = 1.39936071611666 |  erot = 2.97947113417336 | epot = -12.5126154766853 | etot = -8.13378362639525
16000  ekin = 1.46443870928025 |  erot = 2.99312358077433 | epot = -12.5913459174141 | etot = -8.13378362735952
17000  ekin = 1.52113741921509 |  erot = 2.99430260105839 | epot = -12.6492236482457 | etot = -8.13378362797225
18000  ekin = 1.56143918576785 |  erot = 2.98098620608848 | epot = -12.6762090203243 | etot = -8.13378362846798
19000  ekin = 1.57873438318791 |  erot = 2.95206674454562 | epot = -12.6645847564925 | etot = -8.13378362875895
20000  ekin = 1.56841348053787 |  erot = 2.90735147312962 | epot = -12.6095485824457 | etot = -8.13378362877826
21000  ekin = 1.52886464109303 |  erot = 2.84765291368983 | epot = -12.5103011832755 | etot = -8.13378362849267
22000  ekin = 1.46209217703484 |  erot = 2.77478397647203 | epot = -12.3706597813888 | etot = -8.13378362788194
23000  ekin = 1.37376733102669 |  erot = 2.69155728313731 | epot = -12.19910824124 | etot = -8.13378362707596
24000  ekin = 1.27262109890789 |  erot = 2.6011835019476 | epot = -12.0075882269999 | etot = -8.13378362614445
25000  ekin = 1.16926502294374 |  erot = 2.50703692695193 | epot = -11.8100855751044 | etot = -8.13378362520877
26000  ekin = 1.07471489945139 |  erot = 2.41235840152816 | epot = -11.6208569253574 | etot = -8.13378362437787
27000  ekin = 0.99898299575581 |  erot = 2.31997753232678 | epot = -11.4527441518069 | etot = -8.13378362372429
28000  ekin = 0.950065052892316 |  erot = 2.23215621537589 | epot = -11.3160048915419 | etot = -8.13378362327366
29000  ekin = 0.933483801722577 |  erot = 2.15056100102975 | epot = -11.2178284257647 | etot = -8.13378362301235
30000  ekin = 0.952335164336024 |  erot = 2.07633501131222 | epot = -11.1624537985557 | etot = -8.13378362290742
31000  ekin = 1.00761822011313 |  erot = 2.01025995539432 | epot = -11.1516617984317 | etot = -8.13378362292428
32000  ekin = 1.09859027316475 |  erot = 1.95287201474929 | epot = -11.1852459109706 | etot = -8.13378362305652
33000  ekin = 1.22296348257687 |  erot = 1.90442653272441 | epot = -11.2611736386122 | etot = -8.13378362331092
34000  ekin = 1.37683793249573 |  erot = 1.86498336105429 | epot = -11.3756049172808 | etot = -8.13378362373079
35000  ekin = 1.55422271443445 |  erot = 1.8343601383019 | epot = -11.5223664771471 | etot = -8.13378362441076
36000  ekin = 1.74589607048129 |  erot = 1.81205442227464 | epot = -11.6917341182486 | etot = -8.13378362549264
37000  ekin = 1.93777565280849 |  erot = 1.7970519760055 | epot = -11.8686112558401 | etot = -8.13378362702608
38000  ekin = 2.11051089015033 |  erot = 1.78782890330238 | epot = -12.0321234221669 | etot = -8.13378362871415
39000  ekin = 2.24321482588503 |  erot = 1.78271510837236 | epot = -12.1597135641246 | etot = -8.13378362986719
40000  ekin = 2.32146151921638 |  erot = 1.7807328300513 | epot = -12.2359779791649 | etot = -8.13378362989717
41000  ekin = 2.34386750101383 |  erot = 1.78241563043119 | epot = -12.2600667603299 | etot = -8.13378362888484
42000  ekin = 2.3211821852709 |  erot = 1.78979050959084 | epot = -12.2447563223398 | etot = -8.13378362747811
43000  ekin = 2.26309111555136 |  erot = 1.80539262076479 | epot = -12.2022673943963 | etot = -8.13378365808014
44000  ekin = 2.15856242114839 |  erot = 1.84609032619616 | epot = -12.138436388031 | etot = -8.1337836406864
45000  ekin = 2.08936731003517 |  erot = 1.88904724563043 | epot = -12.1121981822923 | etot = -8.13378362662668
46000  ekin = 1.99646115970052 |  erot = 1.93503982400429 | epot = -12.0652846104765 | etot = -8.13378362677173
47000  ekin = 1.89712577412044 |  erot = 1.98806984898585 | epot = -12.0189792501526 | etot = -8.13378362704634
48000  ekin = 1.79036864863096 |  erot = 2.04496273496232 | epot = -11.9691150108768 | etot = -8.1337836272835
49000  ekin = 1.67630116263929 |  erot = 2.10216327906903 | epot = -11.9122480690705 | etot = -8.13378362736215
50000  ekin = 1.55727015247057 |  erot = 2.15637892895973 | epot = -11.8474327086504 | etot = -8.13378362722009
51000  ekin = 1.43817433709137 |  erot = 2.20514040032686 | epot = -11.7770983642845 | etot = -8.13378362686625
52000  ekin = 1.32596547232164 |  erot = 2.24710946474998 | epot = -11.7068585634505 | etot = -8.1337836263789
53000  ekin = 1.22848082922901 |  erot = 2.28204759210372 | epot = -11.6443120472108 | etot = -8.13378362587802
54000  ekin = 1.15295119316255 |  erot = 2.3104993393988 | epot = -11.5972341580451 | etot = -8.1337836254838
55000  ekin = 1.10463170766308 |  erot = 2.33334681406831 | epot = -11.5717621470129 | etot = -8.13378362528153
56000  ekin = 1.0859079951731 |  erot = 2.35139880092322 | epot = -11.5710904214036 | etot = -8.13378362530728
57000  ekin = 1.09599893485473 |  erot = 2.36511154450523 | epot = -11.5948941049137 | etot = -8.13378362555372
58000  ekin = 1.13119803470986 |  erot = 2.3744583057881 | epot = -11.6394399664723 | etot = -8.13378362597435
59000  ekin = 1.18549837183887 |  erot = 2.37891691863228 | epot = -11.6981989169902 | etot = -8.13378362651906
60000  ekin = 1.25136230662737 |  erot = 2.37755306615245 | epot = -11.7626989998987 | etot = -8.13378362711884
61000  ekin = 1.32065657328777 |  erot = 2.36917823379309 | epot = -11.8236184347914 | etot = -8.13378362771055
62000  ekin = 1.38555350991043 |  erot = 2.35258911579052 | epot = -11.871926253894 | etot = -8.13378362819306
63000  ekin = 1.43966787267623 |  erot = 2.32682848519596 | epot = -11.9002799863549 | etot = -8.13378362848276
64000  ekin = 1.47909503438147 |  erot = 2.29144993715398 | epot = -11.904328600069 | etot = -8.1337836285336
65000  ekin = 1.50288049774071 |  erot = 2.24670960905116 | epot = -11.8833737351501 | etot = -8.13378362835827
66000  ekin = 1.51274507599 |  erot = 2.19359684183002 | epot = -11.8401255458511 | etot = -8.13378362803111
67000  ekin = 1.51208659633004 |  erot = 2.13371356874815 | epot = -11.7795837927187 | etot = -8.13378362764054
68000  ekin = 1.50462166617941 |  erot = 2.06904733139784 | epot = -11.7074526249097 | etot = -8.1337836273324
69000  ekin = 1.49293889166153 |  erot = 2.00167765430526 | epot = -11.6284001731041 | etot = -8.1337836271373
70000  ekin = 1.47793621174641 |  erot = 1.93361210060371 | epot = -11.545331939406 | etot = -8.1337836270559
71000  ekin = 1.45891349102848 |  erot = 1.86670994694693 | epot = -11.459407065015 | etot = -8.1337836270396
72000  ekin = 1.43427842101626 |  erot = 1.80270883809013 | epot = -11.3707708861219 | etot = -8.13378362701548
73000  ekin = 1.40258583891031 |  erot = 1.7433103919308 | epot = -11.2796798577524 | etot = -8.13378362691128
74000  ekin = 1.36359371155278 |  erot = 1.69025647754903 | epot = -11.1876338157824 | etot = -8.13378362668054
75000  ekin = 1.31886252565208 |  erot = 1.64533820718009 | epot = -11.0979843591718 | etot = -8.13378362633961
76000  ekin = 1.27181692773745 |  erot = 1.6103004359357 | epot = -11.0159009896014 | etot = -8.13378362592824
77000  ekin = 1.22767338921995 |  erot = 1.58670952555584 | epot = -10.9481665402834 | etot = -8.13378362550763
78000  ekin = 1.19187425881963 |  erot = 1.57555521121104 | epot = -10.9012130952116 | etot = -8.13378362518094
79000  ekin = 1.16922470588811 |  erot = 1.57716601534062 | epot = -10.880174346204 | etot = -8.1337836249753
80000  ekin = 1.16351312193727 |  erot = 1.59112852775389 | epot = -10.8884252746034 | etot = -8.13378362491223
81000  ekin = 1.17709123428932 |  erot = 1.61633850893068 | epot = -10.927213368212 | etot = -8.13378362499198
82000  ekin = 1.21064005584013 |  erot = 1.65118762576668 | epot = -10.9956113068161 | etot = -8.13378362520926
83000  ekin = 1.2629733174272 |  erot = 1.69382675572824 | epot = -11.0905836987108 | etot = -8.1337836255554
84000  ekin = 1.33092648687645 |  erot = 1.74243133123653 | epot = -11.2071414441143 | etot = -8.13378362600127
85000  ekin = 1.40961218427347 |  erot = 1.79540640337804 | epot = -11.3388022141303 | etot = -8.13378362647875
86000  ekin = 1.49330005467903 |  erot = 1.85150064413997 | epot = -11.4785843257051 | etot = -8.13378362688608
87000  ekin = 1.5765338071668 |  erot = 1.90982169886819 | epot = -11.6201391333937 | etot = -8.1337836273587
88000  ekin = 1.65416408678828 |  erot = 1.96971725895482 | epot = -11.7576649732583 | etot = -8.13378362751516
89000  ekin = 1.72360216634148 |  erot = 2.03055934337537 | epot = -11.8879451373046 | etot = -8.13378362758775
90000  ekin = 1.78500984589364 |  erot = 2.09126219979616 | epot = -12.0100556734364 | etot = -8.13378362774662
91000  ekin = 1.83789001415855 |  erot = 2.15001837237376 | epot = -12.1216920145419 | etot = -8.1337836280096
92000  ekin = 1.87517809322833 |  erot = 2.20985483887581 | epot = -12.2188165602805 | etot = -8.13378362817634
93000  ekin = 1.90356384535063 |  erot = 2.26204903048017 | epot = -12.2993965046582 | etot = -8.13378362882741
94000  ekin = 1.91566641673051 |  erot = 2.30892488078336 | epot = -12.3583749263617 | etot = -8.13378362884785
95000  ekin = 1.91095769384029 |  erot = 2.34997522030061 | epot = -12.3947165431018 | etot = -8.13378362896086
96000  ekin = 1.88948402498936 |  erot = 2.38411475951116 | epot = -12.4073824132816 | etot = -8.13378362878104
97000  ekin = 1.85343811133944 |  erot = 2.41133046292271 | epot = -12.3985522027175 | etot = -8.13378362845535
98000  ekin = 1.80684275230329 |  erot = 2.43203206054865 | epot = -12.3726584408923 | etot = -8.13378362804035
99000  ekin = 1.75478641123235 |  erot = 2.44692977736873 | epot = -12.335499816208 | etot = -8.1337836276069
100000  ekin = 1.69590911435728 |  erot = 2.45386958409532 | epot = -12.2835623848866 | etot = -8.13378368643401
101000  ekin = 1.68113249375424 |  erot = 2.36572534112441 | epot = -12.1806414642158 | etot = -8.13378362933716
102000  ekin = 1.7267856590024 |  erot = 2.35051337712513 | epot = -12.2110826965916 | etot = -8.13378366046411
103000  ekin = 1.68338599487772 |  erot = 2.35411811039614 | epot = -12.171287765696 | etot = -8.13378366042209
104000  ekin = 1.64323586412913 |  erot = 2.35701648102724 | epot = -12.1340360056529 | etot = -8.13378366049652
105000  ekin = 1.60584113472101 |  erot = 2.35932964102249 | epot = -12.0989544363539 | etot = -8.13378366061036
106000  ekin = 1.57044138011836 |  erot = 2.36092776943221 | epot = -12.0651528102269 | etot = -8.13378366067637
107000  ekin = 1.5370540025098 |  erot = 2.36166253248189 | epot = -12.0325001956584 | etot = -8.13378366066668
108000  ekin = 1.50696391591108 |  erot = 2.36128557349186 | epot = -12.0020331499846 | etot = -8.13378366058163
109000  ekin = 1.48244426546614 |  erot = 2.35938088270989 | epot = -11.975608808705 | etot = -8.13378366052898
110000  ekin = 1.46539913148006 |  erot = 2.35530683146143 | epot = -11.9544896235791 | etot = -8.13378366063758
111000  ekin = 1.45548748017526 |  erot = 2.34818065606075 | epot = -11.9374517972401 | etot = -8.13378366100409
112000  ekin = 1.44872729612847 |  erot = 2.33695548266933 | epot = -11.9194664403744 | etot = -8.1337836615766
113000  ekin = 1.43805495586384 |  erot = 2.32068695509382 | epot = -11.8925255730868 | etot = -8.13378366212912
114000  ekin = 1.41640788690765 |  erot = 2.29883886662095 | epot = -11.8490304158901 | etot = -8.13378366236154
115000  ekin = 1.38063781821974 |  erot = 2.27153218573286 | epot = -11.7859536655152 | etot = -8.13378366156261
116000  ekin = 1.33630540308317 |  erot = 2.23942220246111 | epot = -11.7095112666469 | etot = -8.13378366110261
117000  ekin = 1.29001229198226 |  erot = 2.20380811829889 | epot = -11.6276040708678 | etot = -8.13378366058668
118000  ekin = 1.24711548834655 |  erot = 2.16635124019887 | epot = -11.5472503887773 | etot = -8.13378366023191
119000  ekin = 1.2107368546938 |  erot = 2.12872161390249 | epot = -11.4732421286712 | etot = -8.13378366007487
120000  ekin = 1.18115748419415 |  erot = 2.09256534610053 | epot = -11.4075064903302 | etot = -8.13378366003556
121000  ekin = 1.15688642101085 |  erot = 2.05947511288385 | epot = -11.3501451939313 | etot = -8.13378366003657
122000  ekin = 1.13593168276767 |  erot = 2.03084061403896 | epot = -11.3005559568657 | etot = -8.13378366005907
123000  ekin = 1.11638811965954 |  erot = 2.00761097209055 | epot = -11.2577827519206 | etot = -8.13378366017052
124000  ekin = 1.09616325371764 |  erot = 1.99019695902072 | epot = -11.2201438730119 | etot = -8.13378366027356
125000  ekin = 1.07358508996158 |  erot = 1.97820026039368 | epot = -11.1855690107834 | etot = -8.13378366042816
126000  ekin = 1.04712198978527 |  erot = 1.97030937007243 | epot = -11.1512150205179 | etot = -8.13378366066021
127000  ekin = 1.01560359550552 |  erot = 1.96476336054356 | epot = -11.1141506168031 | etot = -8.13378366075396
128000  ekin = 0.979281846652424 |  erot = 1.95990906194971 | epot = -11.0729745693079 | etot = -8.13378366070573
129000  ekin = 0.940294043229925 |  erot = 1.95428772921577 | epot = -11.0283654329016 | etot = -8.13378366045589
130000  ekin = 0.902735823607197 |  erot = 1.94710047764787 | epot = -10.9836199613555 | etot = -8.13378366010039
131000  ekin = 0.872329759139543 |  erot = 1.93820575526855 | epot = -10.9443191739573 | etot = -8.13378365954919
132000  ekin = 0.855045600562033 |  erot = 1.92803271303715 | epot = -10.9168619728697 | etot = -8.13378365927052
133000  ekin = 0.854775562822289 |  erot = 1.91694878880994 | epot = -10.9055080107087 | etot = -8.13378365907644
134000  ekin = 0.873981086378628 |  erot = 1.90549522489484 | epot = -10.9132599702534 | etot = -8.13378365897995
135000  ekin = 0.913690181741532 |  erot = 1.89429118508551 | epot = -10.9417650257944 | etot = -8.13378365896737
136000  ekin = 0.973734451665345 |  erot = 1.88395321784274 | epot = -10.9914713285357 | etot = -8.13378365902756
137000  ekin = 1.05255313135919 |  erot = 1.87488800080408 | epot = -11.061224792006 | etot = -8.13378365984271
138000  ekin = 1.14435249948516 |  erot = 1.86626897212086 | epot = -11.1444051316857 | etot = -8.13378366007969
139000  ekin = 1.24448357091321 |  erot = 1.8582143500679 | epot = -11.236481581324 | etot = -8.13378366034288
140000  ekin = 1.34860347563738 |  erot = 1.85113522079157 | epot = -11.3335223570937 | etot = -8.13378366066479
141000  ekin = 1.45162669266301 |  erot = 1.84534635451964 | epot = -11.4307567082677 | etot = -8.13378366108504
142000  ekin = 1.54663919844501 |  erot = 1.84103156950949 | epot = -11.5214544297497 | etot = -8.13378366179526
143000  ekin = 1.62470110239405 |  erot = 1.83813053702656 | epot = -11.5966153018871 | etot = -8.13378366246645
144000  ekin = 1.67710589256278 |  erot = 1.8362281333646 | epot = -11.6471176890266 | etot = -8.13378366309922
145000  ekin = 1.69650852159031 |  erot = 1.83477115527506 | epot = -11.6650633403355 | etot = -8.13378366347008
146000  ekin = 1.67998250270628 |  erot = 1.83334306418739 | epot = -11.6471092301929 | etot = -8.13378366329921
147000  ekin = 1.63255928725482 |  erot = 1.83204496823057 | epot = -11.5983879178788 | etot = -8.13378366239339
148000  ekin = 1.56926257377429 |  erot = 1.8318291475585 | epot = -11.5348753821889 | etot = -8.1337836608561
149000  ekin = 1.51300824977732 |  erot = 1.83452727994381 | epot = -11.481319188926 | etot = -8.1337836592049
150000  ekin = 1.48724963784736 |  erot = 1.84235837448629 | epot = -11.4633916705185 | etot = -8.13378365818481
151000  ekin = 1.50619323823039 |  erot = 1.85697474830032 | epot = -11.4969516448369 | etot = -8.13378365830616
152000  ekin = 1.5685599260267 |  erot = 1.87847282638567 | epot = -11.5808164119029 | etot = -8.13378365949049
153000  ekin = 1.65914489646693 |  erot = 1.90493735115984 | epot = -11.6978659087732 | etot = -8.13378366114644
154000  ekin = 1.75680978950852 |  erot = 1.93282846213627 | epot = -11.8234219142233 | etot = -8.13378366257848
155000  ekin = 1.84344901658533 |  erot = 1.95802697046902 | epot = -11.9352596504348 | etot = -8.13378366338042
156000  ekin = 1.90893795388507 |  erot = 1.97697594926131 | epot = -12.0196975667226 | etot = -8.13378366357624
157000  ekin = 1.95061494385959 |  erot = 1.98738512433556 | epot = -12.071783731632 | etot = -8.1337836634369
158000  ekin = 1.96976178337717 |  erot = 1.98837447181527 | epot = -12.0919199183615 | etot = -8.1337836631691
159000  ekin = 1.96892634677202 |  erot = 1.98033790354862 | epot = -12.0830479131017 | etot = -8.13378366278108
160000  ekin = 1.95167601805888 |  erot = 1.96478101830005 | epot = -12.0502406985806 | etot = -8.13378366222167
161000  ekin = 1.92323849263702 |  erot = 1.94408396543544 | epot = -12.0011061196164 | etot = -8.1337836615439
162000  ekin = 1.89012785139801 |  erot = 1.92106669306974 | epot = -11.9449782053591 | etot = -8.13378366089139
163000  ekin = 1.85873206626249 |  erot = 1.89844726529951 | epot = -11.8909629919515 | etot = -8.13378366038947
164000  ekin = 1.83396756863811 |  erot = 1.87841814938244 | epot = -11.8461693781068 | etot = -8.13378366008626
165000  ekin = 1.81873657813952 |  erot = 1.86247026312311 | epot = -11.8149905012192 | etot = -8.13378365995661
166000  ekin = 1.81415764355191 |  erot = 1.85144128795318 | epot = -11.7993825914505 | etot = -8.13378365994546
167000  ekin = 1.82014338462695 |  erot = 1.84569577974756 | epot = -11.7996228243655 | etot = -8.13378365999101
168000  ekin = 1.83604973591226 |  erot = 1.84534918673597 | epot = -11.8151825826926 | etot = -8.13378366004436
169000  ekin = 1.86118807803943 |  erot = 1.85047766429979 | epot = -11.8454494024149 | etot = -8.13378366007566
170000  ekin = 1.89508209492057 |  erot = 1.86127600745102 | epot = -11.8901417624552 | etot = -8.13378366008356
171000  ekin = 1.93739070093769 |  erot = 1.87813927221221 | epot = -11.9493136332465 | etot = -8.13378366009658
172000  ekin = 1.98746465492681 |  erot = 1.90165699566245 | epot = -12.0229053107605 | etot = -8.13378366017121
173000  ekin = 2.04358732260725 |  erot = 1.93252470914541 | epot = -12.1098956921183 | etot = -8.13378366036566
174000  ekin = 2.10212586880688 |  erot = 1.97139111366202 | epot = -12.2073006432565 | etot = -8.13378366078764
175000  ekin = 2.15653164019906 |  erot = 2.01868623997512 | epot = -12.3090015416381 | etot = -8.13378366146392
176000  ekin = 2.19700590631305 |  erot = 2.07444517694617 | epot = -12.4052347456349 | etot = -8.13378366237568
177000  ekin = 2.21275117726725 |  erot = 2.13809655452333 | epot = -12.4846313951109 | etot = -8.13378366332033
178000  ekin = 2.19103084137775 |  erot = 2.20849637361895 | epot = -12.533310879452 | etot = -8.13378366445526
179000  ekin = 2.05002958755704 |  erot = 2.27647492405917 | epot = -12.4602881626277 | etot = -8.13378365101153
180000  ekin = 2.00100366281004 |  erot = 2.36086155180598 | epot = -12.4956488860894 | etot = -8.1337836714734
181000  ekin = 1.82885344502723 |  erot = 2.44444025932749 | epot = -12.407077374533 | etot = -8.13378367017824
182000  ekin = 1.62724610560494 |  erot = 2.53221325513914 | epot = -12.2932430288209 | etot = -8.13378366807682
183000  ekin = 1.42880501135581 |  erot = 2.62540058534388 | epot = -12.1879892625412 | etot = -8.13378366584149
184000  ekin = 1.26714962832058 |  erot = 2.72561981850484 | epot = -12.1265531111177 | etot = -8.13378366429226
185000  ekin = 1.16606552757935 |  erot = 2.83366450732297 | epot = -12.133513698842 | etot = -8.13378366393972
186000  ekin = 1.13327188784895 |  erot = 2.94811459460577 | epot = -12.2151701472118 | etot = -8.13378366475703
187000  ekin = 1.16127663962599 |  erot = 3.06454091657754 | epot = -12.3596012225478 | etot = -8.13378366634425
188000  ekin = 1.23275799228676 |  erot = 3.175781196142 | epot = -12.5423228566632 | etot = -8.13378366823444
189000  ekin = 1.32637276316101 |  erot = 3.27316596760526 | epot = -12.7333224008237 | etot = -8.13378367005744
190000  ekin = 1.42100795808817 |  erot = 3.34817980173623 | epot = -12.9029714313699 | etot = -8.13378367154548
191000  ekin = 1.49794111549828 |  erot = 3.39410379075318 | epot = -13.0258285788611 | etot = -8.13378367260959
192000  ekin = 1.54262156679617 |  erot = 3.40720165429192 | epot = -13.0836068940657 | etot = -8.13378367297765
193000  ekin = 1.54797240883442 |  erot = 3.38715231466099 | epot = -13.0689083961184 | etot = -8.13378367262301
194000  ekin = 1.51467582661383 |  erot = 3.33705387754693 | epot = -12.9855133757549 | etot = -8.13378367159413
195000  ekin = 1.45101621748164 |  erot = 3.26269312885176 | epot = -12.8474930164457 | etot = -8.13378367011233
196000  ekin = 1.370830429707 |  erot = 3.17132041678855 | epot = -12.6759345149993 | etot = -8.13378366850374
197000  ekin = 1.29009120536656 |  erot = 3.07036265935745 | epot = -12.4942375317738 | etot = -8.13378366704975
198000  ekin = 1.22364196643906 |  erot = 2.96652382643942 | epot = -12.3239494587819 | etot = -8.13378366590339
199000  ekin = 1.18307710083223 |  erot = 2.86542144217698 | epot = -12.1822822081289 | etot = -8.13378366511972
200000  ekin = 1.17564340951914 |  erot = 2.77158698378681 | epot = -12.0810140580292 | etot = -8.13378366472329
201000  ekin = 1.20359619391759 |  erot = 2.68856918537113 | epot = -12.025949044029 | etot = -8.13378366474027
202000  ekin = 1.2637472641382 |  erot = 2.6189418973999 | epot = -12.0164728267163 | etot = -8.13378366517815
203000  ekin = 1.34751597563155 |  erot = 2.56419616426381 | epot = -12.0454958058705 | etot = -8.13378366597517
204000  ekin = 1.44203337890037 |  erot = 2.52468734318859 | epot = -12.100504389064 | etot = -8.13378366697503
205000  ekin = 1.53246038205378 |  erot = 2.49972903140439 | epot = -12.1659730814062 | etot = -8.133783667948
206000  ekin = 1.60510558525673 |  erot = 2.48793425280207 | epot = -12.2268235067212 | etot = -8.13378366866237
207000  ekin = 1.65039556723142 |  erot = 2.48771410987668 | epot = -12.2718933460763 | etot = -8.1337836689682
208000  ekin = 1.66471924263823 |  erot = 2.49772662877132 | epot = -12.2962295402571 | etot = -8.13378366884758
209000  ekin = 1.65060780281918 |  erot = 2.51706178773828 | epot = -12.3014532589728 | etot = -8.13378366841539
210000  ekin = 1.61529613530085 |  erot = 2.54506818372053 | epot = -12.2941479869011 | etot = -8.13378366787974
211000  ekin = 1.56815998339892 |  erot = 2.58088870847243 | epot = -12.2828323593484 | etot = -8.1337836674771
212000  ekin = 1.51779769211943 |  erot = 2.62289115839972 | epot = -12.2744725179128 | etot = -8.13378366739366
213000  ekin = 1.46970697786419 |  erot = 2.66822787294309 | epot = -12.2717185184985 | etot = -8.13378366769118
214000  ekin = 1.42551121611974 |  erot = 2.71271314915556 | epot = -12.2720080334466 | etot = -8.13378366817127
215000  ekin = 1.38449526701832 |  erot = 2.75113858809833 | epot = -12.2694175238343 | etot = -8.13378366871761
216000  ekin = 1.3461145051074 |  erot = 2.7781890544462 | epot = -12.258087228452 | etot = -8.1337836688984
217000  ekin = 1.31348152812027 |  erot = 2.7896405318766 | epot = -12.2369057285559 | etot = -8.13378366855905
218000  ekin = 1.29458639919582 |  erot = 2.78319145109137 | epot = -12.2115615182403 | etot = -8.13378366795311
219000  ekin = 1.29978448123244 |  erot = 2.75785865494228 | epot = -12.1914268036087 | etot = -8.13378366743401
220000  ekin = 1.33694784981905 |  erot = 2.71363634301961 | epot = -12.1843678601793 | etot = -8.13378366734062
221000  ekin = 1.40745643921248 |  erot = 2.65092088134261 | epot = -12.192160988273 | etot = -8.1337836677179
222000  ekin = 1.50572252626126 |  erot = 2.57029476952278 | epot = -12.2098009641053 | etot = -8.13378366832127
223000  ekin = 1.62210843375898 |  erot = 2.47289007334087 | epot = -12.2287821759294 | etot = -8.1337836688296
224000  ekin = 1.74679393023018 |  erot = 2.3609713591932 | epot = -12.2415489584563 | etot = -8.1337836690329
225000  ekin = 1.87205636330011 |  erot = 2.23842454190497 | epot = -12.2442645742138 | etot = -8.13378366900875
226000  ekin = 1.99134598106691 |  erot = 2.11064622098382 | epot = -12.2357758711293 | etot = -8.13378366907857
227000  ekin = 2.09586639151656 |  erot = 1.98364704051152 | epot = -12.2132971015577 | etot = -8.13378366952965
228000  ekin = 2.17197666667369 |  erot = 1.86293503717762 | epot = -12.1686953741905 | etot = -8.13378367033922
229000  ekin = 2.20263173192525 |  erot = 1.752652941547 | epot = -12.0890683445897 | etot = -8.13378367111742
230000  ekin = 2.17321554606771 |  erot = 1.65532359970852 | epot = -11.9623228171283 | etot = -8.13378367135211
231000  ekin = 2.07854920573057 |  erot = 1.57213281486714 | epot = -11.7844656913349 | etot = -8.13378367073717
232000  ekin = 1.92671195021791 |  erot = 1.50340464294846 | epot = -11.5639002625311 | etot = -8.13378366936477
233000  ekin = 1.73729705955905 |  erot = 1.44896834770272 | epot = -11.3200490749313 | etot = -8.13378366766956
234000  ekin = 1.53556953354687 |  erot = 1.40834045937534 | epot = -11.0776936590025 | etot = -8.13378366608026
235000  ekin = 1.34558700580076 |  erot = 1.38078818073929 | epot = -10.8601588514746 | etot = -8.13378366493451
236000  ekin = 1.18525206422553 |  erot = 1.36570263210428 | epot = -10.6847383605466 | etot = -8.13378366421682
237000  ekin = 1.0663702972433 |  erot = 1.36251012102878 | epot = -10.5626640820871 | etot = -8.13378366381499
238000  ekin = 0.995491212021203 |  erot = 1.37070429771444 | epot = -10.4999791734001 | etot = -8.13378366366448
239000  ekin = 0.975031518631974 |  erot = 1.38971384126943 | epot = -10.4985290236708 | etot = -8.13378366376941
240000  ekin = 1.00352423904754 |  erot = 1.41866034024292 | epot = -10.555968243464 | etot = -8.13378366417358
241000  ekin = 1.07556704774241 |  erot = 1.45612900246872 | epot = -10.665479715129 | etot = -8.13378366491785
242000  ekin = 1.18122375067333 |  erot = 1.49994629855531 | epot = -10.8149537152534 | etot = -8.13378366602481
243000  ekin = 1.30634294707449 |  erot = 1.5470333102012 | epot = -10.9871599246167 | etot = -8.13378366734096
244000  ekin = 1.43466609576145 |  erot = 1.59374373480271 | epot = -11.1621934990195 | etot = -8.13378366845533
245000  ekin = 1.55091944171219 |  erot = 1.63606515904686 | epot = -11.3207682704729 | etot = -8.13378366971385
246000  ekin = 1.63963426714534 |  erot = 1.67091688012771 | epot = -11.4443348179098 | etot = -8.1337836706368
247000  ekin = 1.68912292676035 |  erot = 1.6964319257864 | epot = -11.5193385235866 | etot = -8.13378367103984
248000  ekin = 1.69418623366408 |  erot = 1.71223298155063 | epot = -11.5402028860519 | etot = -8.13378367083715
249000  ekin = 1.65708464249869 |  erot = 1.71943097162662 | epot = -11.5102992843201 | etot = -8.13378367019482
250000  ekin = 1.58639864685186 |  erot = 1.72015982289434 | epot = -11.4403421388603 | etot = -8.1337836691141
251000  ekin = 1.49555936407621 |  erot = 1.71716072440119 | epot = -11.346503756442 | etot = -8.13378366796458
252000  ekin = 1.39930346630684 |  erot = 1.71298107622701 | epot = -11.246068209526 | etot = -8.13378366699215
253000  ekin = 1.31034898359364 |  erot = 1.70949093459583 | epot = -11.1536235845404 | etot = -8.1337836663509
254000  ekin = 1.23716194123189 |  erot = 1.70776552340155 | epot = -11.0787111307322 | etot = -8.13378366609876
255000  ekin = 1.18305733845146 |  erot = 1.70821467485119 | epot = -11.02505567945 | etot = -8.13378366614734
256000  ekin = 1.14729363432697 |  erot = 1.71063275158214 | epot = -10.9917100522908 | etot = -8.13378366638174
257000  ekin = 1.12650460108611 |  erot = 1.71454195552832 | epot = -10.9748302232644 | etot = -8.13378366664997
258000  ekin = 1.11669715917877 |  erot = 1.71938873503341 | epot = -10.9698695610663 | etot = -8.13378366685413
259000  ekin = 1.11461746403872 |  erot = 1.72463904931121 | epot = -10.9730401803373 | etot = -8.13378366698741
260000  ekin = 1.11796213299307 |  erot = 1.72976096813993 | epot = -10.9815067682355 | etot = -8.13378366710253
261000  ekin = 1.12495929560841 |  erot = 1.73429797646857 | epot = -10.9930409392101 | etot = -8.13378366713311
262000  ekin = 1.13415334886866 |  erot = 1.73799782227238 | epot = -11.0059348383768 | etot = -8.13378366723578
263000  ekin = 1.14419248657844 |  erot = 1.74014341284022 | epot = -11.0181195666656 | etot = -8.13378366724693
264000  ekin = 1.15486713033129 |  erot = 1.74014049676784 | epot = -11.0287912942182 | etot = -8.13378366711908
265000  ekin = 1.16757148072515 |  erot = 1.73774643956228 | epot = -11.039101587164 | etot = -8.13378366687662
266000  ekin = 1.18492523334748 |  erot = 1.73313774545448 | epot = -11.0518466454021 | etot = -8.13378366660014
267000  ekin = 1.20976553808766 |  erot = 1.72682085390442 | epot = -11.0703700583729 | etot = -8.13378366638078
268000  ekin = 1.24403111905868 |  erot = 1.71946869065501 | epot = -11.0972834759979 | etot = -8.13378366628416
269000  ekin = 1.28796807043229 |  erot = 1.71176934564129 | epot = -11.1335210824099 | etot = -8.13378366633627
270000  ekin = 1.33984072253523 |  erot = 1.70434119615668 | epot = -11.1779655852148 | etot = -8.13378366652291
271000  ekin = 1.39615730896337 |  erot = 1.69774776464912 | epot = -11.2276887403885 | etot = -8.13378366677596
272000  ekin = 1.45234426470677 |  erot = 1.69276715684608 | epot = -11.2788950886267 | etot = -8.13378366707383
273000  ekin = 1.50368133070023 |  erot = 1.68992546991392 | epot = -11.3273904679285 | etot = -8.13378366731437
274000  ekin = 1.54639996325927 |  erot = 1.6898333762904 | epot = -11.3700170069618 | etot = -8.13378366741213
275000  ekin = 1.57877490149039 |  erot = 1.69332235277501 | epot = -11.405880921597 | etot = -8.13378366733163
276000  ekin = 1.60168052283616 |  erot = 1.70138855155631 | epot = -11.4368527414902 | etot = -8.13378366709776
277000  ekin = 1.61832490283279 |  erot = 1.71502642603412 | epot = -11.4671349956696 | etot = -8.1337836668027
278000  ekin = 1.63311060675451 |  erot = 1.73495415768229 | epot = -11.5018484310156 | etot = -8.13378366657884
279000  ekin = 1.64995273995012 |  erot = 1.7613054152807 | epot = -11.5450418217755 | etot = -8.13378366654468
280000  ekin = 1.67073877093475 |  erot = 1.79339849893353 | epot = -11.5979209366131 | etot = -8.13378366674483
281000  ekin = 1.6943840798496 |  erot = 1.82970064438686 | epot = -11.6578683914576 | etot = -8.13378366722109
282000  ekin = 1.71376506080703 |  erot = 1.86795891950406 | epot = -11.7155076481299 | etot = -8.13378366781886
283000  ekin = 1.72224450525124 |  erot = 1.90529068548257 | epot = -11.7613188590742 | etot = -8.13378366834044
284000  ekin = 1.71505262177037 |  erot = 1.93881515489624 | epot = -11.7876514453523 | etot = -8.1337836686857
285000  ekin = 1.68954869056304 |  erot = 1.96608819497596 | epot = -11.7894205543608 | etot = -8.13378366882185
286000  ekin = 1.64555137747513 |  erot = 1.98537597121343 | epot = -11.7647110174618 | etot = -8.13378366877326
287000  ekin = 1.58495470812961 |  erot = 1.99578989882491 | epot = -11.7145282755459 | etot = -8.13378366859137
288000  ekin = 1.51101761585359 |  erot = 1.99729776792844 | epot = -11.6420990521117 | etot = -8.13378366832965
289000  ekin = 1.42766231980762 |  erot = 1.99063899576501 | epot = -11.5520849836058 | etot = -8.13378366803318
290000  ekin = 1.33894501486028 |  erot = 1.97716758999202 | epot = -11.4498962725837 | etot = -8.13378366773145
291000  ekin = 1.24881721187841 |  erot = 1.95864649303043 | epot = -11.3412473723308 | etot = -8.13378366742191
292000  ekin = 1.16137515575476 |  erot = 1.93702958191812 | epot = -11.2321884047281 | etot = -8.13378366705526
293000  ekin = 1.08169833470515 |  erot = 1.9142773845532 | epot = -11.1297593858153 | etot = -8.13378366655697
294000  ekin = 1.01689863826139 |  erot = 1.89223243581212 | epot = -11.0429147399706 | etot = -8.13378366589706
295000  ekin = 0.976377352947992 |  erot = 1.87253324956451 | epot = -10.9826942676907 | etot = -8.1337836651782
296000  ekin = 0.970182395977206 |  erot = 1.85650679550415 | epot = -10.9604728561378 | etot = -8.13378366465643
297000  ekin = 1.0053715181693 |  erot = 1.84499118418733 | epot = -10.9841463669821 | etot = -8.13378366462544
298000  ekin = 1.0820053414679 |  erot = 1.83812417715789 | epot = -11.0539131838597 | etot = -8.13378366523392
299000  ekin = 1.19125189129871 |  erot = 1.83519410294385 | epot = -11.1602296606187 | etot = -8.13378366637611
300000  ekin = 1.31698721061487 |  erot = 1.83465168975558 | epot = -11.2854225681174 | etot = -8.13378366774691
301000  ekin = 1.44008784809453 |  erot = 1.83433803115656 | epot = -11.4082095482436 | etot = -8.13378366899247
302000  ekin = 1.543295485404 |  erot = 1.83190000196943 | epot = -11.5089791572126 | etot = -8.13378366983919
303000  ekin = 1.61484992407344 |  erot = 1.8252943983293 | epot = -11.5739279925568 | etot = -8.1337836701541
304000  ekin = 1.65011047810432 |  erot = 1.81324433416779 | epot = -11.5971384822048 | etot = -8.13378366993264
305000  ekin = 1.65140814366682 |  erot = 1.79549497030297 | epot = -11.5806867832599 | etot = -8.13378366929011
306000  ekin = 1.62643416627286 |  erot = 1.77280218913841 | epot = -11.5330200238205 | etot = -8.13378366840925
307000  ekin = 1.58577500467076 |  erot = 1.74668500708151 | epot = -11.4662436792469 | etot = -8.1337836674946
308000  ekin = 1.54030424866583 |  erot = 1.71903801624562 | epot = -11.3931259316262 | etot = -8.13378366671474
309000  ekin = 1.49900091050411 |  erot = 1.69173690591777 | epot = -11.3245214826107 | etot = -8.13378366618887
310000  ekin = 1.46747597212409 |  erot = 1.66636932779437 | epot = -11.2676289658602 | etot = -8.13378366594173
311000  ekin = 1.44771419446182 |  erot = 1.6441044887668 | epot = -11.2256023491812 | etot = -8.13378366595257
312000  ekin = 1.4383914186336 |  erot = 1.62568199896079 | epot = -11.1978570837368 | etot = -8.13378366614242
313000  ekin = 1.43594352565234 |  erot = 1.61150443049377 | epot = -11.1812316225562 | etot = -8.13378366641007
314000  ekin = 1.43595255617483 |  erot = 1.60177116104681 | epot = -11.171507383878 | etot = -8.13378366665633
315000  ekin = 1.43500742741118 |  erot = 1.5964889609878 | epot = -11.1652800551075 | etot = -8.13378366670849
316000  ekin = 1.43108473245991 |  erot = 1.59565804393697 | epot = -11.1605264431206 | etot = -8.13378366672371
317000  ekin = 1.42390336284289 |  erot = 1.59957952106275 | epot = -11.1572665504352 | etot = -8.13378366652955
318000  ekin = 1.41631295379008 |  erot = 1.60866819207221 | epot = -11.1587648120236 | etot = -8.13378366616135
319000  ekin = 1.41381426233204 |  erot = 1.62334142232299 | epot = -11.1709393503775 | etot = -8.13378366572252
320000  ekin = 1.42315030252307 |  erot = 1.64384116840292 | epot = -11.2007751362901 | etot = -8.13378366536413
321000  ekin = 1.45024845494164 |  erot = 1.67003325940113 | epot = -11.2540653795797 | etot = -8.13378366523698
322000  ekin = 1.49815500536769 |  erot = 1.70123818171388 | epot = -11.3331768525234 | etot = -8.13378366544187
323000  ekin = 1.56569352501857 |  erot = 1.73609284126575 | epot = -11.4355700323009 | etot = -8.13378366601654
324000  ekin = 1.64679224021053 |  erot = 1.77264010660028 | epot = -11.5532160138044 | etot = -8.13378366699365
325000  ekin = 1.7316377563071 |  erot = 1.80818795205573 | epot = -11.6736093764055 | etot = -8.13378366804269
326000  ekin = 1.80750329208009 |  erot = 1.83980749295676 | epot = -11.7810944543837 | etot = -8.13378366934688
327000  ekin = 1.85797659456239 |  erot = 1.8653734654211 | epot = -11.8571337303092 | etot = -8.13378367032572
328000  ekin = 1.8702752074852 |  erot = 1.88392315073346 | epot = -11.8879820288774 | etot = -8.13378367065877
329000  ekin = 1.83949589054379 |  erot = 1.89597309718938 | epot = -11.8692526579112 | etot = -8.13378367017807
330000  ekin = 1.77117100868566 |  erot = 1.90323589019549 | epot = -11.8081905678766 | etot = -8.13378366899549
331000  ekin = 1.68023517872959 |  erot = 1.90771959425567 | epot = -11.7217384405298 | etot = -8.1337836675445
332000  ekin = 1.58599656571128 |  erot = 1.9106685134724 | epot = -11.6304487455335 | etot = -8.13378366634982
333000  ekin = 1.50566649891346 |  erot = 1.91203797343809 | epot = -11.5514881380496 | etot = -8.13378366569808
334000  ekin = 1.44997196058785 |  erot = 1.91073772769989 | epot = -11.4944933538481 | etot = -8.13378366556035
335000  ekin = 1.4217505314068 |  erot = 1.90515605629053 | epot = -11.4606902539309 | etot = -8.1337836662336
336000  ekin = 1.41662531058334 |  erot = 1.89330033651366 | epot = -11.4437093137216 | etot = -8.13378366662463
337000  ekin = 1.42902342419832 |  erot = 1.87459660541411 | epot = -11.4374036965591 | etot = -8.13378366694662
338000  ekin = 1.45347553474049 |  erot = 1.84924982279017 | epot = -11.4365090247025 | etot = -8.13378366717186
339000  ekin = 1.48532648332187 |  erot = 1.81789825388539 | epot = -11.4370084045405 | etot = -8.13378366733326
340000  ekin = 1.52068113212442 |  erot = 1.78131054290192 | epot = -11.4357753425001 | etot = -8.13378366747376
341000  ekin = 1.55606070128809 |  erot = 1.74019406298318 | epot = -11.4300384318852 | etot = -8.13378366761389
342000  ekin = 1.58819693536371 |  erot = 1.69515176482716 | epot = -11.4171323679307 | etot = -8.13378366773981
343000  ekin = 1.61415529814651 |  erot = 1.64675903934922 | epot = -11.3946980053099 | etot = -8.13378366781418
344000  ekin = 1.63171879307193 |  erot = 1.59569319794198 | epot = -11.3611956588144 | etot = -8.13378366780054
345000  ekin = 1.63976605961434 |  erot = 1.54282704208978 | epot = -11.3163767693985 | etot = -8.1337836676944
346000  ekin = 1.63837200138244 |  erot = 1.48918714016676 | epot = -11.2613428090695 | etot = -8.13378366752032
347000  ekin = 1.62852754177346 |  erot = 1.43587351564779 | epot = -11.1981847247516 | etot = -8.13378366733032
348000  ekin = 1.61158889283544 |  erot = 1.38392546940275 | epot = -11.1292980294102 | etot = -8.133783667172
349000  ekin = 1.58873557439446 |  erot = 1.3342285052035 | epot = -11.056747746671 | etot = -8.13378366707302
350000  ekin = 1.56064786721413 |  erot = 1.28749851959694 | epot = -10.9819300538426 | etot = -8.13378366703157
351000  ekin = 1.52754191191345 |  erot = 1.24434620359239 | epot = -10.9056717825191 | etot = -8.1337836670133
352000  ekin = 1.48960299203971 |  erot = 1.20538641997891 | epot = -10.8287730789783 | etot = -8.13378366695965
353000  ekin = 1.4477826450301 |  erot = 1.1713439970898 | epot = -10.7529103089071 | etot = -8.13378366678722
354000  ekin = 1.40533100953398 |  erot = 1.1432484492242 | epot = -10.6823631252437 | etot = -8.13378366648549
355000  ekin = 1.36869095863519 |  erot = 1.12250242069145 | epot = -10.6249770453809 | etot = -8.13378366605427
356000  ekin = 1.34490175995612 |  erot = 1.10992990778002 | epot = -10.5886153331823 | etot = -8.13378366544618
357000  ekin = 1.34315796276117 |  erot = 1.10621719879498 | epot = -10.583158826382 | etot = -8.13378366482581
358000  ekin = 1.37283801208024 |  erot = 1.11171347587621 | epot = -10.6183351524121 | etot = -8.1337836644556
359000  ekin = 1.43996759058486 |  erot = 1.12612871057307 | epot = -10.6998799657447 | etot = -8.13378366458679
360000  ekin = 1.54388445914246 |  erot = 1.14830381564012 | epot = -10.8259719401001 | etot = -8.13378366531751
361000  ekin = 1.67586531509358 |  erot = 1.17618905419073 | epot = -10.9858380358545 | etot = -8.13378366657016
362000  ekin = 1.82005627455714 |  erot = 1.20703160753297 | epot = -11.1608715500453 | etot = -8.13378366795515
363000  ekin = 1.95850583937465 |  erot = 1.23798141777684 | epot = -11.3302709261648 | etot = -8.1337836690133
364000  ekin = 2.07580017664568 |  erot = 1.26672677095107 | epot = -11.4763106177182 | etot = -8.13378367012143
365000  ekin = 2.15891662517571 |  erot = 1.2917362149558 | epot = -11.5844365106016 | etot = -8.13378367047005
366000  ekin = 2.20238380195882 |  erot = 1.31262064914666 | epot = -11.648788121337 | etot = -8.13378367023154
367000  ekin = 2.20851727275365 |  erot = 1.33022857587766 | epot = -11.672529518241 | etot = -8.1337836696097
368000  ekin = 2.18513118770532 |  erot = 1.34632721319906 | epot = -11.6652420696019 | etot = -8.13378366869751
369000  ekin = 2.14321144646566 |  erot = 1.36315448463221 | epot = -11.6401495989011 | etot = -8.13378366780318
370000  ekin = 2.09388282413233 |  erot = 1.38296858720331 | epot = -11.6106350785121 | etot = -8.13378366717648
371000  ekin = 2.04539161606572 |  erot = 1.40758201280195 | epot = -11.5867572956913 | etot = -8.13378366682364
372000  ekin = 2.00261126514604 |  erot = 1.43827057512668 | epot = -11.5746655069384 | etot = -8.13378366666566
373000  ekin = 1.9679830247285 |  erot = 1.47584503943838 | epot = -11.5776117307469 | etot = -8.13378366657999
374000  ekin = 1.94276422015006 |  erot = 1.52074221163606 | epot = -11.5972900983339 | etot = -8.13378366654783
375000  ekin = 1.92741631545217 |  erot = 1.5730262484383 | epot = -11.6342262305079 | etot = -8.1337836666174
376000  ekin = 1.92110841836865 |  erot = 1.63232320681361 | epot = -11.6872152920309 | etot = -8.13378366684861
377000  ekin = 1.92083197489991 |  erot = 1.69770894533866 | epot = -11.7523245875406 | etot = -8.13378366730207
378000  ekin = 1.92097158012466 |  erot = 1.76763055654348 | epot = -11.8223858045408 | etot = -8.13378366787265
379000  ekin = 1.91438056917258 |  erot = 1.83964318713125 | epot = -11.8878074249544 | etot = -8.13378366865056
380000  ekin = 1.89241520119874 |  erot = 1.91106138177056 | epot = -11.9372602523267 | etot = -8.13378366935739
381000  ekin = 1.84711843121677 |  erot = 1.97933543814691 | epot = -11.9602375392292 | etot = -8.13378366986549
382000  ekin = 1.77364821788992 |  erot = 2.04210934440201 | epot = -11.9495412323485 | etot = -8.13378367005658
383000  ekin = 1.67178472399853 |  erot = 2.09754562136921 | epot = -11.9031140151906 | etot = -8.13378366982289
384000  ekin = 1.54709556481479 |  erot = 2.14438708234544 | epot = -11.8252663163795 | etot = -8.13378366921923
385000  ekin = 1.410934328677 |  erot = 2.18184182145276 | epot = -11.7265598182854 | etot = -8.13378366815561
386000  ekin = 1.27958936994424 |  erot = 2.21051340231196 | epot = -11.6238864391447 | etot = -8.13378366688852
387000  ekin = 1.1713786119836 |  erot = 2.23163165239915 | epot = -11.5367939301726 | etot = -8.13378366578982
388000  ekin = 1.1017978040236 |  erot = 2.24634754527653 | epot = -11.481929014527 | etot = -8.13378366522691
389000  ekin = 1.07882148968661 |  erot = 2.25505587957502 | epot = -11.4676610376615 | etot = -8.1337836683999
390000  ekin = 1.07051570135946 |  erot = 2.26936424220831 | epot = -11.4736636037165 | etot = -8.13378366014875
391000  ekin = 1.12513305991451 |  erot = 2.28557987987601 | epot = -11.5444966077426 | etot = -8.13378366795209
392000  ekin = 1.21295440172214 |  erot = 2.27063670340296 | epot = -11.61737477163 | etot = -8.13378366650491
393000  ekin = 1.309243123653 |  erot = 2.24076930893583 | epot = -11.6837960997164 | etot = -8.13378366712755
394000  ekin = 1.40561895760498 |  erot = 2.19794335034456 | epot = -11.7373459753394 | etot = -8.13378366738987
395000  ekin = 1.49662707239239 |  erot = 2.14293675801965 | epot = -11.7733474977465 | etot = -8.13378366733447
396000  ekin = 1.580777279915 |  erot = 2.07761988891123 | epot = -11.792180835875 | etot = -8.13378366704876
397000  ekin = 1.65955042581909 |  erot = 2.0046983719107 | epot = -11.7980324643577 | etot = -8.13378366662792
398000  ekin = 1.73622447988726 |  erot = 1.92743077252907 | epot = -11.7974389185614 | etot = -8.13378366614511
399000  ekin = 1.81471876942364 |  erot = 1.84941455049517 | epot = -11.7979169856376 | etot = -8.13378366571876
400000  ekin = 1.89831345083421 |  erot = 1.7742886930923 | epot = -11.8063858093364 | etot = -8.13378366540993
401000  ekin = 1.98857882165233 |  erot = 1.70555701947636 | epot = -11.8279195064056 | etot = -8.13378366527687
402000  ekin = 2.084692724549 |  erot = 1.64640053761289 | epot = -11.8648769274942 | etot = -8.1337836653323
403000  ekin = 2.1833349288368 |  erot = 1.59947809827678 | epot = -11.9165966926835 | etot = -8.13378366556995
404000  ekin = 2.27899469657526 |  erot = 1.56671457666668 | epot = -11.9794929390993 | etot = -8.13378366585733
405000  ekin = 2.3650640904658 |  erot = 1.54904572147265 | epot = -12.0478934783866 | etot = -8.13378366644817
406000  ekin = 2.43306193249642 |  erot = 1.54630434412244 | epot = -12.1131499437761 | etot = -8.13378366715724
407000  ekin = 2.47364186380247 |  erot = 1.55689186413079 | epot = -12.1643173959513 | etot = -8.13378366801806
408000  ekin = 2.47760299472162 |  erot = 1.57810641384478 | epot = -12.1894930773293 | etot = -8.13378366876287
409000  ekin = 2.43822850842197 |  erot = 1.60664113475488 | epot = -12.1786533122546 | etot = -8.13378366907771
410000  ekin = 2.3551630127982 |  erot = 1.63934184028392 | epot = -12.1282885218116 | etot = -8.13378366872952
411000  ekin = 2.23661952276756 |  erot = 1.67408087730659 | epot = -12.044484067819 | etot = -8.13378366774483
412000  ekin = 2.09851267461488 |  erot = 1.71012170017627 | epot = -11.9424180412105 | etot = -8.13378366641931
413000  ekin = 1.96056484793553 |  erot = 1.74778804011186 | epot = -11.842136553201 | etot = -8.1337836651536
414000  ekin = 1.84128090481232 |  erot = 1.78771082122209 | epot = -11.7627753903044 | etot = -8.13378366426994
415000  ekin = 1.7539044233597 |  erot = 1.83009103154576 | epot = -11.7177791188313 | etot = -8.13378366392587
416000  ekin = 1.70439570487763 |  erot = 1.87425008285784 | epot = -11.7124294518626 | etot = -8.1337836641271
417000  ekin = 1.69131554252952 |  erot = 1.91850147883835 | epot = -11.7436006861843 | etot = -8.13378366481644
418000  ekin = 1.70689490031862 |  erot = 1.96025799788902 | epot = -11.8009365639647 | etot = -8.13378366575706
419000  ekin = 1.7396222223044 |  erot = 1.99637255840835 | epot = -11.8697784475014 | etot = -8.13378366678871
420000  ekin = 1.77669286262541 |  erot = 2.02357619715096 | epot = -11.9340527274796 | etot = -8.13378366770326
421000  ekin = 1.80657824082972 |  erot = 2.03903049555794 | epot = -11.9793924047149 | etot = -8.13378366832718
422000  ekin = 1.82111290085919 |  erot = 2.04088419799665 | epot = -11.9957807674286 | etot = -8.13378366857278
423000  ekin = 1.81648584568683 |  erot = 2.02865244729891 | epot = -11.9789219614448 | etot = -8.13378366845909
424000  ekin = 1.79301691785122 |  erot = 2.00326876348618 | epot = -11.930069349411 | etot = -8.13378366807362
425000  ekin = 1.75424046968171 |  erot = 1.96680784722191 | epot = -11.8548319844114 | etot = -8.13378366750779
426000  ekin = 1.70601392329365 |  erot = 1.92202692837037 | epot = -11.761824518491 | etot = -8.13378366682702
427000  ekin = 1.65580906013192 |  erot = 1.87186985441118 | epot = -11.6614625806808 | etot = -8.13378366613769
428000  ekin = 1.61207963969776 |  erot = 1.81905558542219 | epot = -11.5649188905556 | etot = -8.13378366543564
429000  ekin = 1.58339999423255 |  erot = 1.76579893171751 | epot = -11.4829825908603 | etot = -8.13378366491024
430000  ekin = 1.57646033947907 |  erot = 1.71346152699374 | epot = -11.4237055311736 | etot = -8.1337836647008
431000  ekin = 1.59418488211336 |  erot = 1.6623989277293 | epot = -11.3903674747318 | etot = -8.13378366488913
432000  ekin = 1.63452809772319 |  erot = 1.61205574804097 | epot = -11.3803675111967 | etot = -8.13378366543253
433000  ekin = 1.69077410977551 |  erot = 1.56136635610622 | epot = -11.3859241320218 | etot = -8.13378366614012
434000  ekin = 1.75368500743255 |  erot = 1.50939558466419 | epot = -11.3968642588313 | etot = -8.13378366673452
435000  ekin = 1.8147718894172 |  erot = 1.45598133799916 | epot = -11.4045368944182 | etot = -8.1337836670018
436000  ekin = 1.86895151228509 |  erot = 1.40204530898028 | epot = -11.4047804881009 | etot = -8.13378366683549
437000  ekin = 1.91551323813683 |  erot = 1.34941425923502 | epot = -11.3987111639598 | etot = -8.133783666588
438000  ekin = 1.95545357706189 |  erot = 1.30011080733695 | epot = -11.3893480508786 | etot = -8.13378366647972
439000  ekin = 1.98811153075483 |  erot = 1.25557284833864 | epot = -11.3774680457391 | etot = -8.13378366664567
440000  ekin = 2.00986623435887 |  erot = 1.21630204161112 | epot = -11.3599519429646 | etot = -8.1337836669946
441000  ekin = 2.01530350765631 |  erot = 1.18202297032911 | epot = -11.3311101452731 | etot = -8.13378366728767
442000  ekin = 1.99936349678807 |  erot = 1.152078731383 | epot = -11.2852258960247 | etot = -8.13378366785366
443000  ekin = 1.95696749681459 |  erot = 1.12547607064142 | epot = -11.2162272349841 | etot = -8.13378366752804
444000  ekin = 1.89166490098815 |  erot = 1.10194461448075 | epot = -11.1273931823288 | etot = -8.13378366685986
445000  ekin = 1.81328868644654 |  erot = 1.08168732032691 | epot = -11.0287596725669 | etot = -8.13378366579346
446000  ekin = 1.73577899474671 |  erot = 1.06505071492979 | epot = -10.9346133747222 | etot = -8.13378366504572
447000  ekin = 1.6709318558886 |  erot = 1.05239705127052 | epot = -10.8571125714704 | etot = -8.13378366431129
448000  ekin = 1.62911856819652 |  erot = 1.04409603312755 | epot = -10.8069982651707 | etot = -8.13378366384666
449000  ekin = 1.61731626297205 |  erot = 1.04041489697255 | epot = -10.7915148237054 | etot = -8.13378366376081
450000  ekin = 1.63711697605893 |  erot = 1.04135992229743 | epot = -10.8122605627008 | etot = -8.13378366434445
451000  ekin = 1.68320258142392 |  erot = 1.04620824656602 | epot = -10.863194493023 | etot = -8.13378366503306
452000  ekin = 1.74581668011962 |  erot = 1.05391169410175 | epot = -10.9335120400004 | etot = -8.133783665779
453000  ekin = 1.8145714610081 |  erot = 1.06335165863494 | epot = -11.0117067861213 | etot = -8.13378366647824
454000  ekin = 1.87975957938722 |  erot = 1.07317402238535 | epot = -11.0867172689079 | etot = -8.13378366713529
455000  ekin = 1.93251877588187 |  erot = 1.08171623325476 | epot = -11.1480186769463 | etot = -8.13378366780965
456000  ekin = 1.96415416827106 |  erot = 1.08704156958768 | epot = -11.1849794063593 | etot = -8.13378366850054
457000  ekin = 1.96605348077433 |  erot = 1.08723394294105 | epot = -11.1870710927855 | etot = -8.13378366907009
458000  ekin = 1.93127523761244 |  erot = 1.08096076790295 | epot = -11.1460196747784 | etot = -8.13378366926304
459000  ekin = 1.85771594839391 |  erot = 1.06809531780569 | epot = -11.0595949350238 | etot = -8.13378366882423
460000  ekin = 1.75147188083609 |  erot = 1.05009293158182 | epot = -10.9353484800628 | etot = -8.13378366764487
461000  ekin = 1.628341427337 |  erot = 1.02990811326263 | epot = -10.7920332065012 | etot = -8.13378366590157
462000  ekin = 1.51195360647634 |  erot = 1.0115388117423 | epot = -10.6572760811945 | etot = -8.13378366297585
463000  ekin = 1.43011910143559 |  erot = 1.00022578453597 | epot = -10.564128548146 | etot = -8.13378366217446
464000  ekin = 1.39582910827275 |  erot = 0.998198432075285 | epot = -10.5278112021983 | etot = -8.13378366185029
465000  ekin = 1.4100755485004 |  erot = 1.00592009003044 | epot = -10.5497793012339 | etot = -8.13378366270302
466000  ekin = 1.46251969360615 |  erot = 1.02219738030378 | epot = -10.6185007378606 | etot = -8.13378366395071
467000  ekin = 1.49627186624995 |  erot = 1.0547210182275 | epot = -10.6847765488006 | etot = -8.13378366432314
468000  ekin = 1.51725853676573 |  erot = 1.12479885663716 | epot = -10.7758410579387 | etot = -8.13378366453583
469000  ekin = 1.58140637754935 |  erot = 1.16828828958345 | epot = -10.8834783316146 | etot = -8.13378366448181
470000  ekin = 1.6006857829863 |  erot = 1.18114141020764 | epot = -10.9156108575436 | etot = -8.13378366434967
471000  ekin = 1.59076368326247 |  erot = 1.18707237246731 | epot = -10.9116197194303 | etot = -8.13378366370048
472000  ekin = 1.56124060599445 |  erot = 1.18572143100989 | epot = -10.8807456997975 | etot = -8.1337836627932
473000  ekin = 1.52502097410849 |  erot = 1.17792025680999 | epot = -10.8367248927537 | etot = -8.13378366183525
474000  ekin = 1.49533177225162 |  erot = 1.16544446213429 | epot = -10.7945598953412 | etot = -8.13378366095529
475000  ekin = 1.48386630175245 |  erot = 1.15068540215501 | epot = -10.7683353641457 | etot = -8.13378366023826
476000  ekin = 1.49971334632165 |  erot = 1.13623821677938 | epot = -10.7697352228446 | etot = -8.13378365974361
477000  ekin = 1.54871118769118 |  erot = 1.12448433352741 | epot = -10.8069791813304 | etot = -8.13378366011185
478000  ekin = 1.62953491120229 |  erot = 1.1176426890357 | epot = -10.8809612604779 | etot = -8.13378366023991
479000  ekin = 1.73735741643983 |  erot = 1.11700620811267 | epot = -10.9881472852189 | etot = -8.13378366066636
480000  ekin = 1.86556210288366 |  erot = 1.1226206477507 | epot = -11.1219664120671 | etot = -8.13378366143274
481000  ekin = 2.00121026336739 |  erot = 1.13364860021291 | epot = -11.2686425499465 | etot = -8.13378368636617
482000  ekin = 2.04617329756496 |  erot = 1.16256926171138 | epot = -11.3425262237638 | etot = -8.13378366448742
483000  ekin = 2.14335261836111 |  erot = 1.21476273130976 | epot = -11.4918990325802 | etot = -8.13378368290931
484000  ekin = 2.20270995356018 |  erot = 1.23147381806713 | epot = -11.5679674446462 | etot = -8.13378367301886
485000  ekin = 2.20682939440803 |  erot = 1.23835798981861 | epot = -11.5789710574791 | etot = -8.13378367325243
486000  ekin = 2.1658968279408 |  erot = 1.24300370551612 | epot = -11.5426842062857 | etot = -8.13378367282882
487000  ekin = 2.08668888864723 |  erot = 1.24625551751899 | epot = -11.4667280780129 | etot = -8.1337836718467
488000  ekin = 1.98386509124734 |  erot = 1.24977318046422 | epot = -11.3674219422349 | etot = -8.13378367052336
489000  ekin = 1.87707931030274 |  erot = 1.25547012773505 | epot = -11.2663331071984 | etot = -8.13378366916058
490000  ekin = 1.78677596316487 |  erot = 1.26490338721823 | epot = -11.1854630185099 | etot = -8.13378366812682
491000  ekin = 1.72903831213466 |  erot = 1.27867004038006 | epot = -11.1414920203137 | etot = -8.13378366779894
492000  ekin = 1.71039979057146 |  erot = 1.29591768107188 | epot = -11.1401011400629 | etot = -8.13378366841961
493000  ekin = 1.72454317155542 |  erot = 1.3142328042676 | epot = -11.1725596457267 | etot = -8.13378366990372
494000  ekin = 1.7533278501506 |  erot = 1.33022406246764 | epot = -11.2173355843405 | etot = -8.13378367172221
495000  ekin = 1.77349565825482 |  erot = 1.34086561473416 | epot = -11.2481449460267 | etot = -8.13378367303773
496000  ekin = 1.7672505966796 |  erot = 1.34512484286947 | epot = -11.2461591127002 | etot = -8.1337836731511
497000  ekin = 1.73127637989993 |  erot = 1.34494708212535 | epot = -11.2100071339877 | etot = -8.13378367196243
498000  ekin = 1.67855000909024 |  erot = 1.34489121264854 | epot = -11.1572248917754 | etot = -8.13378367003662
499000  ekin = 1.63191747120666 |  erot = 1.3505672753362 | epot = -11.1162684147567 | etot = -8.13378366821382
500000  ekin = 1.61378359990901 |  erot = 1.36676364681781 | epot = -11.114330913878 | etot = -8.13378366715123
501000  ekin = 1.6375810198877 |  erot = 1.39609850676861 | epot = -11.1674631937581 | etot = -8.1337836671018
502000  ekin = 1.70413807541351 |  erot = 1.43847493669272 | epot = -11.2763966800738 | etot = -8.13378366796758
503000  ekin = 1.80268297747094 |  erot = 1.49115460253733 | epot = -11.4276212495001 | etot = -8.13378366949187
504000  ekin = 1.91419549778108 |  erot = 1.54914693963794 | epot = -11.5971261088461 | etot = -8.13378367142713
505000  ekin = 2.01490443996764 |  erot = 1.60576406504052 | epot = -11.7544521785485 | etot = -8.13378367354036
506000  ekin = 2.07966541469518 |  erot = 1.65345439353742 | epot = -11.866903483672 | etot = -8.13378367543936
507000  ekin = 2.08700353895559 |  erot = 1.68517460629156 | epot = -11.9059618217252 | etot = -8.13378367647805
508000  ekin = 2.02663352661998 |  erot = 1.69625747623338 | epot = -11.8566746789217 | etot = -8.13378367606838
509000  ekin = 1.9058906413288 |  erot = 1.68599529702456 | epot = -11.7256696125402 | etot = -8.13378367418684
510000  ekin = 1.74959091231357 |  erot = 1.65787688253108 | epot = -11.5412514663104 | etot = -8.13378367146572
511000  ekin = 1.59231955658069 |  erot = 1.61826266731441 | epot = -11.3443658926712 | etot = -8.13378366877614
512000  ekin = 1.46755856059773 |  erot = 1.57434662380293 | epot = -11.175688851282 | etot = -8.13378366688134
513000  ekin = 1.39839916092662 |  erot = 1.53234768377543 | epot = -11.064530510811 | etot = -8.13378366610891
514000  ekin = 1.39338903686128 |  erot = 1.49706258344423 | epot = -11.0242352864604 | etot = -8.13378366615493
515000  ekin = 1.44495159061527 |  erot = 1.47110271002897 | epot = -11.0498379682049 | etot = -8.13378366756066
516000  ekin = 1.53288312820976 |  erot = 1.45357064724357 | epot = -11.1202374448392 | etot = -8.13378366938586
517000  ekin = 1.63159033311823 |  erot = 1.44224294472744 | epot = -11.2076169492233 | etot = -8.13378367137759
518000  ekin = 1.71409401455063 |  erot = 1.43408399435722 | epot = -11.2819616821453 | etot = -8.13378367323745
519000  ekin = 1.75665192756043 |  erot = 1.4257900291677 | epot = -11.316225631725 | etot = -8.13378367499687
520000  ekin = 1.74187345947145 |  erot = 1.41504839774796 | epot = -11.290705532424 | etot = -8.13378367520457
521000  ekin = 1.6687170304022 |  erot = 1.40071550595734 | epot = -11.2032162101085 | etot = -8.13378367374891
522000  ekin = 1.55952182855854 |  erot = 1.38339983650022 | epot = -11.0767053361979 | etot = -8.13378367113917
523000  ekin = 1.45114556551339 |  erot = 1.36568308064902 | epot = -10.950612314619 | etot = -8.13378366845664
524000  ekin = 1.38091842212516 |  erot = 1.35134919390967 | epot = -10.8660512824801 | etot = -8.13378366644524
525000  ekin = 1.37601425590964 |  erot = 1.34456662956113 | epot = -10.8543645508805 | etot = -8.13378366540977
526000  ekin = 1.44870428484415 |  erot = 1.34909740179525 | epot = -10.9315853521497 | etot = -8.13378366551033
527000  ekin = 1.59459863546234 |  erot = 1.36714947552367 | epot = -11.0955317778993 | etot = -8.13378366691324
528000  ekin = 1.79183405480797 |  erot = 1.39841904593681 | epot = -11.3240367701627 | etot = -8.13378366941788
529000  ekin = 2.00478978696615 |  erot = 1.43972835788194 | epot = -11.5783018172182 | etot = -8.13378367237008
530000  ekin = 2.19333795600315 |  erot = 1.48552207658528 | epot = -11.8126437074765 | etot = -8.13378367488806
531000  ekin = 2.32431476964379 |  erot = 1.52928747156208 | epot = -11.9873859174943 | etot = -8.13378367628844
532000  ekin = 2.37971447237184 |  erot = 1.56539257218631 | epot = -12.0788907210119 | etot = -8.13378367645376
533000  ekin = 2.35771666714891 |  erot = 1.59048999441058 | epot = -12.0819903372222 | etot = -8.1337836756627
534000  ekin = 2.26899715448626 |  erot = 1.60407394359837 | epot = -12.0068547722161 | etot = -8.13378367413143
535000  ekin = 2.13365177459777 |  erot = 1.6083107246296 | epot = -11.8757461712492 | etot = -8.13378367202181
536000  ekin = 1.9788637616786 |  erot = 1.6071912786844 | epot = -11.7198387100908 | etot = -8.13378366972782
537000  ekin = 1.83421887315835 |  erot = 1.60523898302676 | epot = -11.5732415239485 | etot = -8.13378366776336
538000  ekin = 1.72531720893818 |  erot = 1.60632519290564 | epot = -11.4654260683538 | etot = -8.13378366650998
539000  ekin = 1.66856519906996 |  erot = 1.61301472931521 | epot = -11.4153635945071 | etot = -8.13378366612193
540000  ekin = 1.66907056569383 |  erot = 1.62662968766164 | epot = -11.4294839195163 | etot = -8.13378366616082
541000  ekin = 1.72153495928602 |  erot = 1.64788745987079 | epot = -11.503206086504 | etot = -8.13378366734717
542000  ekin = 1.80903650498357 |  erot = 1.67547869680894 | epot = -11.6182988707034 | etot = -8.13378366891093
543000  ekin = 1.90894616836961 |  erot = 1.70734508948411 | epot = -11.750074928387 | etot = -8.13378367053332
544000  ekin = 1.99777842840843 |  erot = 1.74125357781333 | epot = -11.8728156781394 | etot = -8.13378367191766
545000  ekin = 2.05546409375728 |  erot = 1.775210000368 | epot = -11.9644577669585 | etot = -8.13378367283324
546000  ekin = 2.06867595314661 |  erot = 1.80779483609302 | epot = -12.0102544623943 | etot = -8.13378367315469
547000  ekin = 2.03267806246332 |  erot = 1.83838588998255 | epot = -12.0048476253119 | etot = -8.13378367286604
548000  ekin = 1.95148731421571 |  erot = 1.86718390882593 | epot = -11.952454895143 | etot = -8.13378367210134
549000  ekin = 1.83645042329996 |  erot = 1.89487456519869 | epot = -11.8651086595336 | etot = -8.13378367103499
550000  ekin = 1.70373130494866 |  erot = 1.92233248820466 | epot = -11.7598474630285 | etot = -8.13378366987514
551000  ekin = 1.57139422780135 |  erot = 1.95024291867786 | epot = -11.6554208152887 | etot = -8.13378366880944
552000  ekin = 1.45663332556324 |  erot = 1.97878558862517 | epot = -11.5692025821803 | etot = -8.13378366799192
553000  ekin = 1.37337409018016 |  erot = 2.00744335365199 | epot = -11.5146011113766 | etot = -8.13378366754447
554000  ekin = 1.33029485860764 |  erot = 2.03496657144847 | epot = -11.4990450975982 | etot = -8.13378366754206
555000  ekin = 1.32945359624273 |  erot = 2.05953157375645 | epot = -11.5227688379944 | etot = -8.13378366799524
556000  ekin = 1.36589068756207 |  erot = 2.07909837608978 | epot = -11.5787727324608 | etot = -8.13378366880893
557000  ekin = 1.42857577083481 |  erot = 2.09193210846715 | epot = -11.6542915491015 | etot = -8.13378366979958
558000  ekin = 1.50275359964289 |  erot = 2.09715314139941 | epot = -11.7336904117718 | etot = -8.13378367072947
559000  ekin = 1.57321830908329 |  erot = 2.09511862189366 | epot = -11.8021206023705 | etot = -8.13378367139358
560000  ekin = 1.6274017236465 |  erot = 2.087454968932 | epot = -11.8486403643042 | etot = -8.13378367172567
561000  ekin = 1.65692416189385 |  erot = 2.07666092047372 | epot = -11.8673687541731 | etot = -8.13378367180556
562000  ekin = 1.65737426357174 |  erot = 2.0654453421429 | epot = -11.8566032774454 | etot = -8.13378367173075
563000  ekin = 1.62727808429023 |  erot = 2.05615555037856 | epot = -11.8172173064541 | etot = -8.13378367178534
564000  ekin = 1.5667993305725 |  erot = 2.05047511799268 | epot = -11.7510581199157 | etot = -8.13378367135052
565000  ekin = 1.48206055330143 |  erot = 2.0491757685827 | epot = -11.6650199925286 | etot = -8.1337836706445
566000  ekin = 1.38423866545193 |  erot = 2.05221850149957 | epot = -11.5702408367327 | etot = -8.13378366978123
567000  ekin = 1.28749391779742 |  erot = 2.05873429505081 | epot = -11.4800118818319 | etot = -8.13378366898366
568000  ekin = 1.20570431102363 |  erot = 2.06705692033673 | epot = -11.4065448998151 | etot = -8.13378366845479
569000  ekin = 1.1491855802165 |  erot = 2.07495244465823 | epot = -11.3579216931616 | etot = -8.13378366828688
570000  ekin = 1.12276449644208 |  erot = 2.0800727296211 | epot = -11.3366208945057 | etot = -8.13378366844252
571000  ekin = 1.12567595869785 |  erot = 2.08050218013495 | epot = -11.339961807631 | etot = -8.13378366879821
572000  ekin = 1.15294903408345 |  erot = 2.07519259344957 | epot = -11.3619252967326 | etot = -8.13378366919954
573000  ekin = 1.19838854916647 |  erot = 2.06451015558507 | epot = -11.3966823739772 | etot = -8.13378366922563
574000  ekin = 1.25460427387331 |  erot = 2.04968889738616 | epot = -11.4380768407835 | etot = -8.13378366952404
575000  ekin = 1.31454735693943 |  erot = 2.0319954986278 | epot = -11.4803265250977 | etot = -8.13378366953043
576000  ekin = 1.37512583610229 |  erot = 2.01319845741229 | epot = -11.5221079628175 | etot = -8.13378366930293
577000  ekin = 1.43682760502377 |  erot = 1.99528982934728 | epot = -11.5659011033338 | etot = -8.13378366896277
578000  ekin = 1.50235588201375 |  erot = 1.98017269182814 | epot = -11.6163122424656 | etot = -8.13378366862376
579000  ekin = 1.57520818416489 |  erot = 1.96938672247282 | epot = -11.678378574995 | etot = -8.13378366835732
580000  ekin = 1.65868462492769 |  erot = 1.96390249857524 | epot = -11.7563707921413 | etot = -8.13378366863839
581000  ekin = 1.75247311826443 |  erot = 1.96419308534704 | epot = -11.8504498724739 | etot = -8.13378366886238
582000  ekin = 1.85283782857608 |  erot = 1.96967477641549 | epot = -11.9562962743687 | etot = -8.13378366937713
583000  ekin = 1.95429754597348 |  erot = 1.9782640549542 | epot = -12.0663452712512 | etot = -8.13378367032347
584000  ekin = 2.04662916572053 |  erot = 1.98631443704345 | epot = -12.1667272745337 | etot = -8.13378367176971
585000  ekin = 2.11419694671403 |  erot = 1.98862566442272 | epot = -12.2366062846743 | etot = -8.13378367353755
586000  ekin = 2.13871236988121 |  erot = 1.97915340581469 | epot = -12.251649450776 | etot = -8.13378367508006
587000  ekin = 2.10465783247563 |  erot = 1.95256271523141 | epot = -12.1910042235968 | etot = -8.13378367588979
588000  ekin = 2.00543191748823 |  erot = 1.90599988277549 | epot = -12.0452154755405 | etot = -8.1337836752768
589000  ekin = 1.8511544610378 |  erot = 1.8402150933608 | epot = -11.8251532276745 | etot = -8.13378367327595
590000  ekin = 1.66921622807647 |  erot = 1.75933351103874 | epot = -11.5623334095064 | etot = -8.13378367039119
591000  ekin = 1.49774854837941 |  erot = 1.66961531492502 | epot = -11.3011475307911 | etot = -8.13378366748669
592000  ekin = 1.37418208600387 |  erot = 1.57786762199158 | epot = -11.0858333735145 | etot = -8.13378366551908
593000  ekin = 1.32230765434246 |  erot = 1.49017042367128 | epot = -10.9462617430902 | etot = -8.1337836650765
594000  ekin = 1.34433584581911 |  erot = 1.41110289036532 | epot = -10.8892224022195 | etot = -8.13378366603506
595000  ekin = 1.42313762141911 |  erot = 1.34352894994521 | epot = -10.9004502389463 | etot = -8.13378366758196
596000  ekin = 1.53140640357542 |  erot = 1.28905714162956 | epot = -10.9542472149285 | etot = -8.13378366972353
597000  ekin = 1.63793776665325 |  erot = 1.2482270839826 | epot = -11.0199485217758 | etot = -8.13378367113998
598000  ekin = 1.718533694974 |  erot = 1.22042305584472 | epot = -11.0727404229686 | etot = -8.13378367214989
599000  ekin = 1.75676579672513 |  erot = 1.20417119498316 | epot = -11.0947206644428 | etot = -8.13378367273454
600000  ekin = 1.74415562351449 |  erot = 1.19748501257861 | epot = -11.0754243089071 | etot = -8.13378367281402
601000  ekin = 1.68078686628184 |  erot = 1.1984278646776 | epot = -11.0129984032453 | etot = -8.13378367228587
602000  ekin = 1.57592768465072 |  erot = 1.20571835983529 | epot = -10.9154297156255 | etot = -8.13378367113943
603000  ekin = 1.44736021988681 |  erot = 1.21906556666057 | epot = -10.8002094561174 | etot = -8.13378366957
604000  ekin = 1.31829530124371 |  erot = 1.23900632720492 | epot = -10.6910852964323 | etot = -8.13378366798363
605000  ekin = 1.21203583247667 |  erot = 1.26625018196014 | epot = -10.612069681198 | etot = -8.13378366676121
606000  ekin = 1.14717881944112 |  erot = 1.30114918573457 | epot = -10.5821116711586 | etot = -8.13378366598289
607000  ekin = 1.1349313797046 |  erot = 1.3434425650136 | epot = -10.6121576106298 | etot = -8.13378366591159
608000  ekin = 1.17769398075485 |  erot = 1.39211398655797 | epot = -10.7035916336178 | etot = -8.133783666305
609000  ekin = 1.27083042497883 |  erot = 1.44572829443028 | epot = -10.8503423864898 | etot = -8.13378366708069
610000  ekin = 1.40359308953889 |  erot = 1.50241692808152 | epot = -11.0397936861306 | etot = -8.13378366851023
611000  ekin = 1.55996607947245 |  erot = 1.55982171139507 | epot = -11.2535714606358 | etot = -8.13378366976826
612000  ekin = 1.72323074885789 |  erot = 1.61567444068049 | epot = -11.4726888606326 | etot = -8.13378367109423
613000  ekin = 1.87623356286512 |  erot = 1.66732234624217 | epot = -11.6773395814991 | etot = -8.13378367239176
614000  ekin = 2.00332542687911 |  erot = 1.71185786770801 | epot = -11.8489669679077 | etot = -8.13378367332056
615000  ekin = 2.09384471069508 |  erot = 1.74706892485827 | epot = -11.9746973091512 | etot = -8.13378367359783
616000  ekin = 2.14582652012747 |  erot = 1.77208418550836 | epot = -12.0516943786567 | etot = -8.13378367302086
617000  ekin = 2.16764032552766 |  erot = 1.78786476154816 | epot = -12.0892887588773 | etot = -8.13378367180151
618000  ekin = 2.17543321837153 |  erot = 1.79702594194215 | epot = -12.1062428306671 | etot = -8.13378367035342
619000  ekin = 2.18765015125709 |  erot = 1.80309631575783 | epot = -12.1245301362373 | etot = -8.13378366922234
620000  ekin = 2.21827388576416 |  erot = 1.80941579610299 | epot = -12.1614733506274 | etot = -8.1337836687603
621000  ekin = 2.27256724286402 |  erot = 1.81817906105471 | epot = -12.2245299729513 | etot = -8.1337836690326
622000  ekin = 2.34686215368615 |  erot = 1.82980019933472 | epot = -12.310446022909 | etot = -8.13378366988813
623000  ekin = 2.43079483961508 |  erot = 1.84272954678687 | epot = -12.4073080574993 | etot = -8.13378367109738
624000  ekin = 2.51074859398786 |  erot = 1.85365912854469 | epot = -12.4981913948755 | etot = -8.13378367234298
625000  ekin = 2.57376014758131 |  erot = 1.85839628629207 | epot = -12.5659401070654 | etot = -8.13378367319205
626000  ekin = 2.61178608744452 |  erot = 1.85335246049875 | epot = -12.598922221275 | etot = -8.13378367333175
627000  ekin = 2.62439666915931 |  erot = 1.83675929860247 | epot = -12.594939640602 | etot = -8.13378367284026
628000  ekin = 2.61715143116762 |  erot = 1.8088329781489 | epot = -12.5597680815372 | etot = -8.13378367222064
629000  ekin = 2.59614002780117 |  erot = 1.7707692802223 | epot = -12.5006929799602 | etot = -8.13378367193676
630000  ekin = 2.56316564608641 |  erot = 1.72368862272841 | epot = -12.4206379408586 | etot = -8.13378367204378
631000  ekin = 2.51545670840044 |  erot = 1.66841938705191 | epot = -12.3176597677017 | etot = -8.13378367224933
632000  ekin = 2.44898106284244 |  erot = 1.60594586085957 | epot = -12.1887105959539 | etot = -8.13378367225187
633000  ekin = 2.36287257798046 |  erot = 1.53782426738179 | epot = -12.0344805167192 | etot = -8.133783671357
634000  ekin = 2.26405242524586 |  erot = 1.46623278030911 | epot = -11.8640688761389 | etot = -8.13378367058396
635000  ekin = 2.16101755721071 |  erot = 1.39475566088435 | epot = -11.6895568878058 | etot = -8.13378366971069
636000  ekin = 2.06475253332332 |  erot = 1.32686506234471 | epot = -11.525401264263 | etot = -8.13378366859494
637000  ekin = 1.98973271037364 |  erot = 1.26596624429333 | epot = -11.3894826221242 | etot = -8.13378366745719
638000  ekin = 1.95146778322637 |  erot = 1.21514985243908 | epot = -11.3004013022988 | etot = -8.13378366663335
639000  ekin = 1.96182069136074 |  erot = 1.17695161176029 | epot = -11.2725559693059 | etot = -8.1337836661849
640000  ekin = 2.02679898932442 |  erot = 1.15239183902883 | epot = -11.3129744949286 | etot = -8.13378366657532
641000  ekin = 2.14199910312121 |  erot = 1.14071086556268 | epot = -11.4164936363307 | etot = -8.13378366764684
642000  ekin = 2.29285046318182 |  erot = 1.13915186811117 | epot = -11.5657860007509 | etot = -8.13378366945789
643000  ekin = 2.45552552112612 |  erot = 1.14338828232791 | epot = -11.7326974750685 | etot = -8.13378367161449
644000  ekin = 2.60133752583765 |  erot = 1.14835367490193 | epot = -11.8834748743288 | etot = -8.13378367358923
645000  ekin = 2.70371430393133 |  erot = 1.14938437136287 | epot = -11.9868823501723 | etot = -8.13378367487811
646000  ekin = 2.74463607559142 |  erot = 1.14332224209745 | epot = -12.021741992903 | etot = -8.13378367521416
647000  ekin = 2.71817787237135 |  erot = 1.12915792947037 | epot = -11.9811194764747 | etot = -8.133783674633
648000  ekin = 2.6302824606608 |  erot = 1.1079861362622 | epot = -11.872052270317 | etot = -8.13378367339403
649000  ekin = 2.49559189347602 |  erot = 1.08245328244903 | epot = -11.7118288477888 | etot = -8.13378367186375
650000  ekin = 2.33293161554916 |  erot = 1.05592857135633 | epot = -11.5226438572757 | etot = -8.13378367037018
651000  ekin = 2.16312160403797 |  erot = 1.03179243268804 | epot = -11.3286977053753 | etot = -8.13378366864933
652000  ekin = 2.00437764472428 |  erot = 1.01263346475561 | epot = -11.1507947776106 | etot = -8.13378366813075
653000  ekin = 1.86320148187955 |  erot = 0.999771298669746 | epot = -10.9967564485064 | etot = -8.13378366795708
654000  ekin = 1.74159938814825 |  erot = 0.993638993401102 | epot = -10.8690220495681 | etot = -8.13378366801875
655000  ekin = 1.63877614369276 |  erot = 0.993961110610004 | epot = -10.766520922488 | etot = -8.13378366818526
656000  ekin = 1.55293696393508 |  erot = 0.999977751473736 | epot = -10.6866983837365 | etot = -8.1337836683277
657000  ekin = 1.48301105564686 |  erot = 1.01069155838529 | epot = -10.6274862823797 | etot = -8.13378366834753
[...]
838000  ekin = 1.41623376469177 |  erot = 1.68359587924002 | epot = -11.2336133181851 | etot = -8.13378367425327
839000  ekin = 1.38164226022883 |  erot = 1.69827238730634 | epot = -11.2136983221479 | etot = -8.1337836746127
840000  ekin = 1.37281419727167 |  erot = 1.71791872245656 | epot = -11.2245165948287 | etot = -8.13378367510052
841000  ekin = 1.38251849209846 |  erot = 1.74222357840642 | epot = -11.2585257460945 | etot = -8.13378367558961
842000  ekin = 1.40440815965638 |  erot = 1.77053653193029 | epot = -11.3087283676331 | etot = -8.1337836760464
843000  ekin = 1.43288889960296 |  erot = 1.80208713639217 | epot = -11.3687597124758 | etot = -8.13378367648068
844000  ekin = 1.46337505862155 |  erot = 1.83581425244182 | epot = -11.4329729879867 | etot = -8.13378367692338
845000  ekin = 1.49225139022616 |  erot = 1.87011931166226 | epot = -11.4961543792847 | etot = -8.13378367739628
846000  ekin = 1.51675477530659 |  erot = 1.90271354943593 | epot = -11.5532520026132 | etot = -8.13378367787066
847000  ekin = 1.53514567640472 |  erot = 1.93076451192737 | epot = -11.5996938665532 | etot = -8.13378367822108
848000  ekin = 1.54758817199846 |  erot = 1.9514972978965 | epot = -11.6328691481481 | etot = -8.13378367825309
849000  ekin = 1.55740275351731 |  erot = 1.96313933264327 | epot = -11.6543257640164 | etot = -8.13378367785578
850000  ekin = 1.57132389439935 |  erot = 1.96572299074807 | epot = -11.6708305623289 | etot = -8.13378367718149
851000  ekin = 1.5970756344578 |  erot = 1.96110149874015 | epot = -11.6919608098358 | etot = -8.13378367663783
852000  ekin = 1.63865350785723 |  erot = 1.95197424585548 | epot = -11.7244114303845 | etot = -8.13378367667182
853000  ekin = 1.69191652767873 |  erot = 1.94037118775443 | epot = -11.7660713929014 | etot = -8.13378367746827
854000  ekin = 1.74370784095843 |  erot = 1.92645693856154 | epot = -11.8039484582276 | etot = -8.13378367870759
855000  ekin = 1.77620146904349 |  erot = 1.90847432051664 | epot = -11.8184594695099 | etot = -8.13378367994976
856000  ekin = 1.7743327315563 |  erot = 1.8831581802035 | epot = -11.7912745922608 | etot = -8.13378368050104
857000  ekin = 1.73346273138711 |  erot = 1.84735528741916 | epot = -11.7146016988036 | etot = -8.13378367999734
858000  ekin = 1.66317903327422 |  erot = 1.79946643697216 | epot = -11.5964291487802 | etot = -8.13378367853386
859000  ekin = 1.58513293500994 |  erot = 1.74007953876524 | epot = -11.4589961503921 | etot = -8.13378367661694
860000  ekin = 1.52581941777539 |  erot = 1.67168470774618 | epot = -11.3312878004225 | etot = -8.13378367490089
861000  ekin = 1.50775028721497 |  erot = 1.59782760941443 | epot = -11.2393615704942 | etot = -8.13378367386484
862000  ekin = 1.54306866365532 |  erot = 1.52225954438612 | epot = -11.1991118816871 | etot = -8.13378367364566
863000  ekin = 1.6317159466918 |  erot = 1.44845127756382 | epot = -11.2139508983417 | etot = -8.13378367408605
864000  ekin = 1.76367870758185 |  erot = 1.37946094083215 | epot = -11.2769233233254 | etot = -8.13378367491138
865000  ekin = 1.92306453026686 |  erot = 1.31796433781767 | epot = -11.3748125439526 | etot = -8.13378367586809
866000  ekin = 2.09215456429192 |  erot = 1.26628926050879 | epot = -11.4922275013601 | etot = -8.13378367655935
867000  ekin = 2.25558706692968 |  erot = 1.22649711187753 | epot = -11.6158678561 | etot = -8.13378367729279
868000  ekin = 2.4005744364021 |  erot = 1.2001770658163 | epot = -11.7345351800139 | etot = -8.13378367779554
869000  ekin = 2.51819395270244 |  erot = 1.18842551968108 | epot = -11.8404031504555 | etot = -8.13378367807202
870000  ekin = 2.60380767677859 |  erot = 1.19178595702329 | epot = -11.9293773120202 | etot = -8.13378367821829
871000  ekin = 2.65597330583381 |  erot = 1.21008900165249 | epot = -11.9998459858103 | etot = -8.13378367832396
872000  ekin = 2.67413391830291 |  erot = 1.24223617454386 | epot = -12.0501537715774 | etot = -8.13378367873062
873000  ekin = 2.65523813375041 |  erot = 1.28590823756077 | epot = -12.0749300506724 | etot = -8.13378367936117
874000  ekin = 2.5942634377792 |  erot = 1.33769628185253 | epot = -12.0657433996559 | etot = -8.13378368002414
875000  ekin = 2.48661885037166 |  erot = 1.39359938768211 | epot = -12.0140019184124 | etot = -8.13378368035867
876000  ekin = 2.33257163439378 |  erot = 1.44985984524718 | epot = -11.9162151596366 | etot = -8.1337836799956
877000  ekin = 2.14151731713928 |  erot = 1.50380376819361 | epot = -11.7791047641582 | etot = -8.1337836788253
878000  ekin = 1.93283200480574 |  erot = 1.55419737735226 | epot = -11.6208130593438 | etot = -8.13378367718584
879000  ekin = 1.73117573736269 |  erot = 1.60084517527374 | epot = -11.4658045883822 | etot = -8.13378367574575
880000  ekin = 1.55787151436413 |  erot = 1.64373016622472 | epot = -11.3353853556409 | etot = -8.13378367505205
881000  ekin = 1.4238414226995 |  erot = 1.68244604683188 | epot = -11.2400711446601 | etot = -8.13378367512872
882000  ekin = 1.32893688616277 |  erot = 1.71640874299369 | epot = -11.1791293047101 | etot = -8.13378367555359
883000  ekin = 1.26714280234259 |  erot = 1.74554143046407 | epot = -11.1464679085346 | etot = -8.1337836757279
884000  ekin = 1.23268823968338 |  erot = 1.77071758405247 | epot = -11.1371894996829 | etot = -8.13378367594708
885000  ekin = 1.22008849604878 |  erot = 1.79312166838186 | epot = -11.1469938405371 | etot = -8.13378367610647
886000  ekin = 1.22532479934271 |  erot = 1.81382116045745 | epot = -11.1729296360398 | etot = -8.13378367623961
887000  ekin = 1.24494548117457 |  erot = 1.8333603963917 | epot = -11.2120895540301 | etot = -8.13378367646381
888000  ekin = 1.27500212884365 |  erot = 1.85168867113016 | epot = -11.2604744767242 | etot = -8.13378367675039
889000  ekin = 1.31152735216214 |  erot = 1.86844690141026 | epot = -11.3137579306759 | etot = -8.13378367710354
890000  ekin = 1.34986317534656 |  erot = 1.88304641070349 | epot = -11.3666932635747 | etot = -8.13378367752465
891000  ekin = 1.38390530439102 |  erot = 1.89468392925388 | epot = -11.4123729117311 | etot = -8.13378367808616
892000  ekin = 1.40569395982604 |  erot = 1.90226748663938 | epot = -11.4417451254759 | etot = -8.13378367901044
893000  ekin = 1.40448288952788 |  erot = 1.90432470790168 | epot = -11.4425912771326 | etot = -8.133783679703
894000  ekin = 1.37144289368962 |  erot = 1.89954369061736 | epot = -11.4047702642956 | etot = -8.13378367998863
895000  ekin = 1.30348485897457 |  erot = 1.88750422995841 | epot = -11.3247727651079 | etot = -8.13378367617497
896000  ekin = 1.22187336998444 |  erot = 1.87071061683906 | epot = -11.2263676623361 | etot = -8.13378367551265
897000  ekin = 1.14754845795918 |  erot = 1.85263803852203 | epot = -11.133970170985 | etot = -8.13378367450379
898000  ekin = 1.0894401666782 |  erot = 1.83653761339992 | epot = -11.0597614539997 | etot = -8.13378367392153
899000  ekin = 1.05403951185428 |  erot = 1.82413022638262 | epot = -11.0119534118263 | etot = -8.13378367358937
900000  ekin = 1.04500203374125 |  erot = 1.81619426325871 | epot = -10.994979970599 | etot = -8.13378367359899
901000  ekin = 1.06222206958838 |  erot = 1.81234403090884 | epot = -11.0083497744213 | etot = -8.13378367392404
902000  ekin = 1.10209713953262 |  erot = 1.81111462901185 | epot = -11.0469954429951 | etot = -8.13378367445065
903000  ekin = 1.15876030919815 |  erot = 1.81037876564088 | epot = -11.1029227498666 | etot = -8.1337836750276
904000  ekin = 1.22532881868895 |  erot = 1.80797942309905 | epot = -11.1670919177536 | etot = -8.13378367596563
905000  ekin = 1.29206809095903 |  erot = 1.80250391194262 | epot = -11.2283556793645 | etot = -8.13378367646285
906000  ekin = 1.35183435807236 |  erot = 1.79300035918705 | epot = -11.2786183940143 | etot = -8.13378367675487
907000  ekin = 1.39979991804968 |  erot = 1.77946415976113 | epot = -11.3130477547698 | etot = -8.13378367695902
908000  ekin = 1.43268044760586 |  erot = 1.76253539564442 | epot = -11.3289995202589 | etot = -8.1337836770086
909000  ekin = 1.44897967317411 |  erot = 1.74341748046558 | epot = -11.3261808305238 | etot = -8.13378367688408
910000  ekin = 1.44937912410374 |  erot = 1.72390580424464 | epot = -11.3070686049034 | etot = -8.13378367655501
911000  ekin = 1.43727653901082 |  erot = 1.70617572397284 | epot = -11.2772359390314 | etot = -8.13378367604775
912000  ekin = 1.41843448526137 |  erot = 1.69263823238872 | epot = -11.2448563930944 | etot = -8.13378367544426
913000  ekin = 1.40006194417444 |  erot = 1.68549440984894 | epot = -11.2193400288879 | etot = -8.1337836748645
914000  ekin = 1.38958826433221 |  erot = 1.68634774656204 | epot = -11.2097196853649 | etot = -8.13378367447062
915000  ekin = 1.3924484181458 |  erot = 1.69595180435942 | epot = -11.2221838969179 | etot = -8.13378367441273
916000  ekin = 1.41015014643736 |  erot = 1.71401831964729 | epot = -11.2579521408522 | etot = -8.13378367476758
917000  ekin = 1.43929629568622 |  erot = 1.73916764012182 | epot = -11.3122476112987 | etot = -8.13378367549068
918000  ekin = 1.47227942732727 |  erot = 1.76903078853432 | epot = -11.3750938922592 | etot = -8.13378367639764
919000  ekin = 1.49986621694382 |  erot = 1.80052098854388 | epot = -11.434170882671 | etot = -8.13378367718331
920000  ekin = 1.51501277066282 |  erot = 1.83027923248907 | epot = -11.4790756807405 | etot = -8.13378367758866
921000  ekin = 1.50567012585016 |  erot = 1.85806253105846 | epot = -11.4975163337524 | etot = -8.13378367684377
922000  ekin = 1.50530570239061 |  erot = 1.88405749187795 | epot = -11.5231468708863 | etot = -8.13378367661771
923000  ekin = 1.5100507222613 |  erot = 1.89398296765514 | epot = -11.5378173657682 | etot = -8.13378367585177
924000  ekin = 1.52928061177728 |  erot = 1.89561779701016 | epot = -11.5586820842204 | etot = -8.13378367543291
925000  ekin = 1.56873673292402 |  erot = 1.88910082641922 | epot = -11.5916212350578 | etot = -8.13378367571459
926000  ekin = 1.62371911831486 |  erot = 1.87429650755031 | epot = -11.6317993025452 | etot = -8.13378367668006
927000  ekin = 1.67952368659847 |  erot = 1.85068760909607 | epot = -11.663994973649 | etot = -8.13378367795444
928000  ekin = 1.71651231937012 |  erot = 1.81783745839694 | epot = -11.6681334567968 | etot = -8.13378367902978
929000  ekin = 1.71702543031627 |  erot = 1.77614095742252 | epot = -11.6269500672433 | etot = -8.13378367950455
930000  ekin = 1.67099557324773 |  erot = 1.72742889172141 | epot = -11.5322081441688 | etot = -8.13378367919966
931000  ekin = 1.57874462067967 |  erot = 1.67513458229245 | epot = -11.3876628811367 | etot = -8.13378367816462
932000  ekin = 1.45079207853887 |  erot = 1.62392798691301 | epot = -11.2085037420747 | etot = -8.13378367662285
933000  ekin = 1.30531755672303 |  erot = 1.57894109421434 | epot = -11.0180423258301 | etot = -8.13378367489271
934000  ekin = 1.16422088329089 |  erot = 1.54485802570237 | epot = -10.8428625822865 | etot = -8.13378367329321
935000  ekin = 1.04864497412146 |  erot = 1.52509209020426 | epot = -10.7075207364842 | etot = -8.13378367215844
936000  ekin = 0.974709277355076 |  erot = 1.5211632794776 | epot = -10.6296562285138 | etot = -8.13378367168116
937000  ekin = 0.950462282435358 |  erot = 1.53244919589169 | epot = -10.6166951502828 | etot = -8.1337836719558
938000  ekin = 0.974421294317095 |  erot = 1.55616007126923 | epot = -10.6643650385255 | etot = -8.13378367293916
939000  ekin = 1.03606886875283 |  erot = 1.58755449668805 | epot = -10.7574070398925 | etot = -8.1337836744516
940000  ekin = 1.11826841097827 |  erot = 1.62042989133882 | epot = -10.8724819785104 | etot = -8.13378367619327
941000  ekin = 1.20122028676247 |  erot = 1.647942321778 | epot = -10.9829462863239 | etot = -8.13378367778342
942000  ekin = 1.26717763788107 |  erot = 1.66371923949471 | epot = -11.064680556256 | etot = -8.13378367888023
943000  ekin = 1.30509212548454 |  erot = 1.66314531290326 | epot = -11.1020211175079 | etot = -8.13378367912005
944000  ekin = 1.31392377941706 |  erot = 1.64449670953824 | epot = -11.0922041674694 | etot = -8.13378367851408
945000  ekin = 1.30237464482146 |  erot = 1.60929976282496 | epot = -11.0454580849921 | etot = -8.13378367734564
946000  ekin = 1.28506402524997 |  erot = 1.56181036955624 | epot = -10.9806580709166 | etot = -8.13378367611037
947000  ekin = 1.27634123248021 |  erot = 1.50774431625924 | epot = -10.9178692240169 | etot = -8.13378367527748
948000  ekin = 1.28467886334604 |  erot = 1.45281196851979 | epot = -10.8712745069289 | etot = -8.13378367506306
949000  ekin = 1.31037739931187 |  erot = 1.40157240160075 | epot = -10.8457334762846 | etot = -8.13378367537192
950000  ekin = 1.34722619713605 |  erot = 1.35688689392538 | epot = -10.8378967669862 | etot = -8.13378367592474
951000  ekin = 1.38650860378259 |  erot = 1.31991933074365 | epot = -10.8402116109553 | etot = -8.13378367642902
952000  ekin = 1.42144708627244 |  erot = 1.29081153438282 | epot = -10.8460422972849 | etot = -8.13378367662959
953000  ekin = 1.44882630060475 |  erot = 1.26905801123287 | epot = -10.8516679885858 | etot = -8.13378367674822
954000  ekin = 1.46839021275845 |  erot = 1.25288009143895 | epot = -10.8550539807693 | etot = -8.13378367657191
955000  ekin = 1.48389177715126 |  erot = 1.24071489106762 | epot = -10.858390344495 | etot = -8.13378367627607
956000  ekin = 1.50041047835906 |  erot = 1.2315227957995 | epot = -10.865716950236 | etot = -8.13378367607739
957000  ekin = 1.52124212938386 |  erot = 1.22481047855597 | epot = -10.8798362840347 | etot = -8.13378367609489
958000  ekin = 1.54632228642024 |  erot = 1.22051885770772 | epot = -10.9006248203859 | etot = -8.1337836762579
959000  ekin = 1.57324295525608 |  erot = 1.21891910028103 | epot = -10.9259457319073 | etot = -8.13378367637021
960000  ekin = 1.59969207165375 |  erot = 1.22060655625839 | epot = -10.9540823042994 | etot = -8.1337836763873
961000  ekin = 1.62253441841053 |  erot = 1.22677323007276 | epot = -10.9830913247458 | etot = -8.13378367626253
962000  ekin = 1.64127230029093 |  erot = 1.23851880685504 | epot = -11.0135747832687 | etot = -8.13378367612276
963000  ekin = 1.65616191394628 |  erot = 1.25678968673731 | epot = -11.0467352768283 | etot = -8.13378367614474
964000  ekin = 1.66566514835788 |  erot = 1.2821825356311 | epot = -11.0816313602355 | etot = -8.13378367624651
965000  ekin = 1.66770285465376 |  erot = 1.31455464344755 | epot = -11.116041174674 | etot = -8.13378367657273
966000  ekin = 1.65810694939265 |  erot = 1.35314679676482 | epot = -11.1450374229662 | etot = -8.1337836768087
967000  ekin = 1.63401913633517 |  erot = 1.39653020195716 | epot = -11.1643330152242 | etot = -8.13378367693186
968000  ekin = 1.59493850242904 |  erot = 1.44254096565422 | epot = -11.1712631451478 | etot = -8.13378367706454
969000  ekin = 1.54116623716297 |  erot = 1.48830566518274 | epot = -11.1632555796833 | etot = -8.13378367733759
970000  ekin = 1.47195250801033 |  erot = 1.53048571021186 | epot = -11.1362218959303 | etot = -8.13378367770813
971000  ekin = 1.38571362762309 |  erot = 1.5659319915874 | epot = -11.0854292968192 | etot = -8.13378367760867
972000  ekin = 1.28446124333223 |  erot = 1.59277024276602 | epot = -11.0110151635477 | etot = -8.13378367744944
973000  ekin = 1.17320809039301 |  erot = 1.61049478677328 | epot = -10.917486553852 | etot = -8.13378367668571
974000  ekin = 1.0631342188793 |  erot = 1.62023440813227 | epot = -10.8171523024324 | etot = -8.13378367542082
975000  ekin = 0.970987629701475 |  erot = 1.62445058099423 | epot = -10.7292218847911 | etot = -8.13378367409543
976000  ekin = 0.913517834567817 |  erot = 1.62592321007244 | epot = -10.6732247179332 | etot = -8.13378367329294
977000  ekin = 0.900210297654077 |  erot = 1.62660680723013 | epot = -10.6606007782574 | etot = -8.13378367337318
978000  ekin = 0.928774958775107 |  erot = 1.62702792860406 | epot = -10.6895865616268 | etot = -8.13378367424762
979000  ekin = 0.986309689327432 |  erot = 1.62661906122259 | epot = -10.7467124259008 | etot = -8.13378367535074
980000  ekin = 1.0560418454924 |  erot = 1.62477777624085 | epot = -10.8146032978575 | etot = -8.13378367612422
981000  ekin = 1.12469745187195 |  erot = 1.62193499821263 | epot = -10.8804161263686 | etot = -8.13378367628398
982000  ekin = 1.18655422482105 |  erot = 1.61989865387711 | epot = -10.9402365545981 | etot = -8.13378367589994
983000  ekin = 1.24323393311992 |  erot = 1.62138932788851 | epot = -10.998406936256 | etot = -8.13378367524754
984000  ekin = 1.30072892327626 |  erot = 1.62917854627659 | epot = -11.0636911441773 | etot = -8.13378367462449
985000  ekin = 1.36575798911648 |  erot = 1.64530549585525 | epot = -11.1448471592314 | etot = -8.13378367425969
986000  ekin = 1.44269014512294 |  erot = 1.67060135307579 | epot = -11.2470751724986 | etot = -8.13378367429988
987000  ekin = 1.53139017740745 |  erot = 1.70450616321304 | epot = -11.3696800154343 | etot = -8.1337836748138
988000  ekin = 1.62542517030702 |  erot = 1.7449046285767 | epot = -11.504113474737 | etot = -8.13378367585327
989000  ekin = 1.70973314398117 |  erot = 1.7875805388455 | epot = -11.631097360008 | etot = -8.13378367718133
990000  ekin = 1.76834990635802 |  erot = 1.82854800996923 | epot = -11.7306815947091 | etot = -8.13378367838186
991000  ekin = 1.7871758514216 |  erot = 1.86445265694609 | epot = -11.7854121874403 | etot = -8.13378367907259
992000  ekin = 1.75808068886329 |  erot = 1.89344947298815 | epot = -11.7853138408832 | etot = -8.13378367903175
993000  ekin = 1.68149922510894 |  erot = 1.91587779071164 | epot = -11.7311606940965 | etot = -8.13378367827596
994000  ekin = 1.56634005366206 |  erot = 1.93428820683748 | epot = -11.6344119374815 | etot = -8.13378367698193
995000  ekin = 1.42807354895591 |  erot = 1.95281321342399 | epot = -11.5146704377921 | etot = -8.13378367541221
996000  ekin = 1.28578074226447 |  erot = 1.97614374551562 | epot = -11.3957081616626 | etot = -8.13378367388251
997000  ekin = 1.15849050464292 |  erot = 2.0084932110791 | epot = -11.3007673883969 | etot = -8.13378367267486
998000  ekin = 1.06172554756218 |  erot = 2.05288173936092 | epot = -11.2483909588695 | etot = -8.13378367194642
999000  ekin = 1.0053486386626 |  erot = 2.11083351379714 | epot = -11.2499658241946 | etot = -8.13378367173489
1000000  ekin = 0.992888353296924 |  erot = 2.18232107108543 | epot = -11.308993096404 | etot = -8.1337836720216
   1000000   0.073547285   -1.1520387      0.021139403   -1.0316105     -4.7686302e-05  64000        
Loop time of 12.1858 on 4 procs for 1000000 steps with 10 atoms

Performance: 70902.321 tau/day, 82062.872 timesteps/s, 820.629 katom-step/s
99.4% CPU use with 4 MPI tasks x no OpenMP threads

MPI task timing breakdown:
Section |  min time  |  avg time  |  max time  |%varavg| %total
---------------------------------------------------------------
Pair    | 3.2037     | 4.9084     | 6.9734     |  60.8 | 40.28
Bond    | 0.18448    | 0.2503     | 0.31886    |  11.0 |  2.05
Neigh   | 0.0043     | 0.0043222  | 0.00434    |   0.0 |  0.04
Comm    | 2.8197     | 5.1929     | 6.9422     |  65.4 | 42.61
Output  | 0.063316   | 0.071204   | 0.09072    |   4.2 |  0.58
Modify  | 0.42717    | 0.46404    | 0.49643    |   4.3 |  3.81
Other   |            | 1.295      |            |       | 10.62

Nlocal:            2.5 ave           3 max           2 min
Histogram: 2 0 0 0 0 0 0 0 0 2
Nghost:            7.5 ave           8 max           7 min
Histogram: 2 0 0 0 0 0 0 0 0 2
Neighs:           9.25 ave          16 max           1 min
Histogram: 1 0 0 1 0 0 0 0 1 1

Total # of neighbors = 37
Ave neighs/atom = 3.7
Ave special neighs/atom = 3.6
Neighbor list builds = 1000
Dangerous builds = 0

write_data last_config.${number}.* nocoeff
write_data last_config.3.* nocoeff
System init for write_data ...
Generated 0 of 6 mixed pair_coeff terms from geometric mixing rule
#write_restart last_config.${number}.*
Total wall time: 0:00:12
