LAMMPS (2 Apr 2025)
variable number	equal 3
variable ofreq	equal 1000
variable efreq	equal 1000
variable T      equal 0.1
variable rhos   equal 0.2

units lj

dimension 3

newton on

boundary  p p p

atom_style hybrid bond ellipsoid oxdna
WARNING: Atom style hybrid defines both, per-type and per-atom masses; both must be set, but only per-atom masses will be used (../atom_vec_hybrid.cpp:132)
atom_modify sort 0 1.0

# Pair interactions require lists of neighbours to be calculated
neighbor 2.0 bin
neigh_modify every 1 delay 0 check yes

read_data data.duplex3
Reading data file ...
  orthogonal box = (-20 -20 -20) to (20 20 20)
  1 by 1 by 1 MPI processor grid
  reading atoms ...
  10 atoms
  reading velocities ...
  10 velocities
  scanning bonds ...
  1 = max bonds/atom
  10 ellipsoids
  orthogonal box = (-20 -20 -20) to (20 20 20)
  1 by 1 by 1 MPI processor grid
  reading bonds ...
  8 bonds
Finding 1-2 1-3 1-4 neighbors ...
  special bond factors lj:    0        0        0       
  special bond factors coul:  0        0        0       
     2 = max # of 1-2 neighbors
     2 = max # of 1-3 neighbors
     2 = max # of 1-4 neighbors
     4 = max # of special neighbors
  special bonds CPU = 0.000 seconds
  read_data CPU = 0.002 seconds

set atom * mass 1.0
Setting atom values ...
  10 settings made for mass

group all type 1 4
10 atoms in group all

# oxDNA2 bond interactions - FENE backbone
bond_style oxdna2/fene
bond_coeff * 2.0 0.25 0.7564
special_bonds lj 0 1 1
Finding 1-2 1-3 1-4 neighbors ...
  special bond factors lj:    0        1        1       
  special bond factors coul:  0        0        0       
     2 = max # of 1-2 neighbors
     2 = max # of 1-3 neighbors
     2 = max # of 1-4 neighbors
     4 = max # of special neighbors
  special bonds CPU = 0.000 seconds

# oxDNA2 pair interactions
pair_style hybrid/overlay oxdna2/excv oxdna2/stk oxdna2/hbond oxdna2/xstk oxdna2/coaxstk oxdna2/dh
pair_coeff * * oxdna2/excv    2.0 0.7 0.675 2.0 0.515 0.5 2.0 0.33 0.32
pair_coeff * * oxdna2/stk     seqdep ${T} 1.3523 2.6717 6.0 0.4 0.9 0.32 0.75 1.3 0 0.8 0.9 0 0.95 0.9 0 0.95 2.0 0.65 2.0 0.65
pair_coeff * * oxdna2/stk     seqdep 0.1 1.3523 2.6717 6.0 0.4 0.9 0.32 0.75 1.3 0 0.8 0.9 0 0.95 0.9 0 0.95 2.0 0.65 2.0 0.65
pair_coeff * * oxdna2/hbond   seqdep 0.0 8.0 0.4 0.75 0.34 0.7 1.5 0 0.7 1.5 0 0.7 1.5 0 0.7 0.46 3.141592653589793 0.7 4.0 1.5707963267948966 0.45 4.0 1.5707963267948966 0.45
pair_coeff 1 4 oxdna2/hbond   seqdep 1.0678 8.0 0.4 0.75 0.34 0.7 1.5 0 0.7 1.5 0 0.7 1.5 0 0.7 0.46 3.141592653589793 0.7 4.0 1.5707963267948966 0.45 4.0 1.5707963267948966 0.45
pair_coeff 2 3 oxdna2/hbond   seqdep 1.0678 8.0 0.4 0.75 0.34 0.7 1.5 0 0.7 1.5 0 0.7 1.5 0 0.7 0.46 3.141592653589793 0.7 4.0 1.5707963267948966 0.45 4.0 1.5707963267948966 0.45
pair_coeff * * oxdna2/xstk    47.5 0.575 0.675 0.495 0.655 2.25 0.791592653589793 0.58 1.7 1.0 0.68 1.7 1.0 0.68 1.5 0 0.65 1.7 0.875 0.68 1.7 0.875 0.68
pair_coeff * * oxdna2/coaxstk 58.5 0.4 0.6 0.22 0.58 2.0 2.891592653589793 0.65 1.3 0 0.8 0.9 0 0.95 0.9 0 0.95 40.0 3.116592653589793
pair_coeff * * oxdna2/dh      ${T} ${rhos} 0.815
pair_coeff * * oxdna2/dh      0.1 ${rhos} 0.815
pair_coeff * * oxdna2/dh      0.1 0.2 0.815

# NVE ensemble
fix 1 all nve/asphere
#fix 2 all langevin ${T} ${T} 2.5 457145 angmom 10

timestep 1e-5

#comm_style tiled
fix 3 all balance 1000 1.03 shift xyz 10 1.03
comm_modify cutoff 3.8

compute quat all property/atom quatw quati quatj quatk

compute erot all erotate/asphere
compute ekin all ke
compute epot all pe
variable erot equal c_erot
variable ekin equal c_ekin
variable epot equal c_epot
variable etot equal c_erot+c_ekin+c_epot
fix 5 all print ${efreq} "$(step)  ekin = ${ekin} |  erot = ${erot} | epot = ${epot} | etot = ${etot}" screen yes
fix 5 all print 1000 "$(step)  ekin = ${ekin} |  erot = ${erot} | epot = ${epot} | etot = ${etot}" screen yes

dump out all custom ${ofreq} out.${number}.lammpstrj id mol type x y z ix iy iz vx vy vz c_quat[1] c_quat[2] c_quat[3] c_quat[4] angmomx angmomy angmomz
dump out all custom 1000 out.${number}.lammpstrj id mol type x y z ix iy iz vx vy vz c_quat[1] c_quat[2] c_quat[3] c_quat[4] angmomx angmomy angmomz
dump out all custom 1000 out.3.lammpstrj id mol type x y z ix iy iz vx vy vz c_quat[1] c_quat[2] c_quat[3] c_quat[4] angmomx angmomy angmomz
dump_modify out sort id
dump_modify out format line "%d %d %d  %22.15le %22.15le %22.15le  %d %d %d  %22.15le %22.15le %22.15le  %22.15le %22.15le %22.15le %22.15le  %22.15le %22.15le %22.15le"

run 1000000
Generated 0 of 6 mixed pair_coeff terms from geometric mixing rule
Neighbor list info ...
  update: every = 1 steps, delay = 0 steps, check = yes
  max neighbors/atom: 2000, page size: 100000
  master list distance cutoff = 5.6389877
  ghost atom cutoff = 5.6389877
  binsize = 2.8194939, bins = 15 15 15
  5 neighbor lists, perpetual/occasional/extra = 5 0 0
  (1) pair oxdna2/excv, perpetual
      attributes: half, newton on
      pair build: half/bin/newton
      stencil: half/bin/3d
      bin: standard
  (2) pair oxdna2/hbond, perpetual, copy from (1)
      attributes: half, newton on
      pair build: copy
      stencil: none
      bin: none
  (3) pair oxdna2/xstk, perpetual, copy from (1)
      attributes: half, newton on
      pair build: copy
      stencil: none
      bin: none
  (4) pair oxdna2/coaxstk, perpetual, copy from (1)
      attributes: half, newton on
      pair build: copy
      stencil: none
      bin: none
  (5) pair oxdna2/dh, perpetual, copy from (1)
      attributes: half, newton on
      pair build: copy
      stencil: none
      bin: none
WARNING: Communication cutoff adjusted to 5.638987723814633 (../comm.cpp:753)
0  ekin = 1.18025158324274 |  erot = 2.17908479136507 | epot = -11.4931199991265 | etot = -8.13378362451864
Per MPI rank memory allocation (min/avg/max) = 7.507 | 7.507 | 7.507 Mbytes
   Step          Temp          E_pair         E_mol          TotEng         Press          Volume    
         0   0.087426043   -1.2259004      0.076588446   -1.0312868     -7.7802026e-06  64000        
1000  ekin = 1.08696491147664 |  erot = 2.23197650714075 | epot = -11.4527250425129 | etot = -8.13378362389549
2000  ekin = 1.01265115460252 |  erot = 2.29132031278141 | epot = -11.4377550908151 | etot = -8.13378362343119
3000  ekin = 0.964951920610362 |  erot = 2.35614244814783 | epot = -11.4548779921653 | etot = -8.13378362340706
4000  ekin = 0.945861179227109 |  erot = 2.42482489276794 | epot = -11.504469695762 | etot = -8.13378362376699
5000  ekin = 0.952186940161594 |  erot = 2.49508744948287 | epot = -11.5810580140496 | etot = -8.13378362440514
6000  ekin = 0.976836955567339 |  erot = 2.56435791368456 | epot = -11.6749784943528 | etot = -8.13378362510092
7000  ekin = 1.01151727363105 |  erot = 2.63034980765842 | epot = -11.7756507069156 | etot = -8.13378362562617
8000  ekin = 1.04963768886897 |  erot = 2.69159648304405 | epot = -11.8750177977506 | etot = -8.13378362583761
9000  ekin = 1.08831406483925 |  erot = 2.74768757650641 | epot = -11.9697852671577 | etot = -8.13378362581205
10000  ekin = 1.12769894654433 |  erot = 2.79881902231421 | epot = -12.0603015945014 | etot = -8.1337836256429
11000  ekin = 1.16997706279097 |  erot = 2.84539220453504 | epot = -12.1491528928086 | etot = -8.13378362548264
12000  ekin = 1.21772825403565 |  erot = 2.88753582693543 | epot = -12.2390477064186 | etot = -8.13378362544756
13000  ekin = 1.27247277648632 |  erot = 2.92478423931377 | epot = -12.3310406413901 | etot = -8.13378362559006
14000  ekin = 1.33384628320075 |  erot = 2.95599632290762 | epot = -12.4236262320191 | etot = -8.13378362591076
15000  ekin = 1.39936071611665 |  erot = 2.97947113417333 | epot = -12.512615476685 | etot = -8.13378362639507
16000  ekin = 1.46443870928024 |  erot = 2.99312358077431 | epot = -12.591345917414 | etot = -8.13378362735945
17000  ekin = 1.52113741921508 |  erot = 2.99430260105837 | epot = -12.6492236482456 | etot = -8.13378362797214
18000  ekin = 1.56143918576785 |  erot = 2.98098620608846 | epot = -12.6762090203242 | etot = -8.13378362846787
19000  ekin = 1.57873438318791 |  erot = 2.95206674454559 | epot = -12.6645847564923 | etot = -8.13378362875883
20000  ekin = 1.56841348053786 |  erot = 2.90735147312959 | epot = -12.6095485824456 | etot = -8.13378362877811
21000  ekin = 1.52886464109303 |  erot = 2.84765291368979 | epot = -12.5103011832754 | etot = -8.13378362849257
22000  ekin = 1.46209217703483 |  erot = 2.77478397647199 | epot = -12.3706597813887 | etot = -8.13378362788187
23000  ekin = 1.37376733102668 |  erot = 2.69155728313727 | epot = -12.1991082412398 | etot = -8.13378362707589
24000  ekin = 1.27262109890786 |  erot = 2.60118350194756 | epot = -12.0075882269998 | etot = -8.1337836261444
25000  ekin = 1.1692650229437 |  erot = 2.50703692695189 | epot = -11.8100855751043 | etot = -8.13378362520868
26000  ekin = 1.07471489945136 |  erot = 2.41235840152812 | epot = -11.6208569253573 | etot = -8.13378362437779
27000  ekin = 0.998982995755767 |  erot = 2.31997753232675 | epot = -11.4527441518067 | etot = -8.13378362372421
28000  ekin = 0.950065052892274 |  erot = 2.23215621537586 | epot = -11.3160048915418 | etot = -8.13378362327363
29000  ekin = 0.933483801722539 |  erot = 2.15056100102973 | epot = -11.2178284257647 | etot = -8.13378362301241
30000  ekin = 0.952335164335989 |  erot = 2.07633501131221 | epot = -11.1624537985557 | etot = -8.13378362290754
31000  ekin = 1.0076182201131 |  erot = 2.01025995539431 | epot = -11.1516617984318 | etot = -8.13378362292442
32000  ekin = 1.09859027316471 |  erot = 1.95287201474928 | epot = -11.1852459109707 | etot = -8.13378362305669
33000  ekin = 1.22296348257683 |  erot = 1.90442653272439 | epot = -11.2611736386123 | etot = -8.13378362331103
34000  ekin = 1.37683793249569 |  erot = 1.86498336105426 | epot = -11.3756049172808 | etot = -8.13378362373088
35000  ekin = 1.5542227144344 |  erot = 1.83436013830186 | epot = -11.5223664771471 | etot = -8.13378362441083
36000  ekin = 1.74589607048122 |  erot = 1.81205442227459 | epot = -11.6917341182485 | etot = -8.13378362549269
37000  ekin = 1.93777565280839 |  erot = 1.79705197600545 | epot = -11.8686112558399 | etot = -8.13378362702603
38000  ekin = 2.11051089015021 |  erot = 1.78782890330231 | epot = -12.0321234221666 | etot = -8.13378362871409
39000  ekin = 2.2432148258849 |  erot = 1.78271510837228 | epot = -12.1597135641243 | etot = -8.13378362986713
40000  ekin = 2.32146151921625 |  erot = 1.78073283005121 | epot = -12.2359779791646 | etot = -8.13378362989714
41000  ekin = 2.34386750101372 |  erot = 1.7824156304311 | epot = -12.2600667603296 | etot = -8.13378362888483
42000  ekin = 2.32118218527082 |  erot = 1.78979050959073 | epot = -12.2447563223396 | etot = -8.13378362747808
43000  ekin = 2.26309111555145 |  erot = 1.80539262076469 | epot = -12.2022673943962 | etot = -8.13378365808008
44000  ekin = 2.15856242114819 |  erot = 1.84609032619602 | epot = -12.1384363880305 | etot = -8.13378364068633
45000  ekin = 2.08936731003514 |  erot = 1.88904724563036 | epot = -12.1121981822921 | etot = -8.13378362662662
46000  ekin = 1.9964611597005 |  erot = 1.93503982400423 | epot = -12.0652846104764 | etot = -8.13378362677162
47000  ekin = 1.89712577412043 |  erot = 1.98806984898582 | epot = -12.0189792501525 | etot = -8.13378362704621
48000  ekin = 1.79036864863097 |  erot = 2.04496273496232 | epot = -11.9691150108767 | etot = -8.13378362728339
49000  ekin = 1.67630116263933 |  erot = 2.10216327906906 | epot = -11.9122480690704 | etot = -8.13378362736201
50000  ekin = 1.55727015247063 |  erot = 2.15637892895978 | epot = -11.8474327086503 | etot = -8.13378362721986
51000  ekin = 1.43817433709146 |  erot = 2.20514040032694 | epot = -11.7770983642843 | etot = -8.13378362686595
52000  ekin = 1.32596547232177 |  erot = 2.24710946475006 | epot = -11.7068585634504 | etot = -8.13378362637856
53000  ekin = 1.22848082922919 |  erot = 2.28204759210381 | epot = -11.6443120472107 | etot = -8.13378362587774
54000  ekin = 1.15295119316277 |  erot = 2.31049933939889 | epot = -11.5972341580452 | etot = -8.13378362548354
55000  ekin = 1.10463170766333 |  erot = 2.33334681406841 | epot = -11.571762147013 | etot = -8.13378362528127
56000  ekin = 1.08590799517338 |  erot = 2.35139880092331 | epot = -11.5710904214037 | etot = -8.133783625307
57000  ekin = 1.09599893485503 |  erot = 2.36511154450531 | epot = -11.5948941049138 | etot = -8.13378362555344
58000  ekin = 1.13119803471017 |  erot = 2.37445830578817 | epot = -11.6394399664724 | etot = -8.13378362597403
59000  ekin = 1.18549837183919 |  erot = 2.37891691863234 | epot = -11.6981989169902 | etot = -8.13378362651872
60000  ekin = 1.2513623066277 |  erot = 2.37755306615251 | epot = -11.7626989998987 | etot = -8.13378362711849
61000  ekin = 1.32065657328809 |  erot = 2.36917823379314 | epot = -11.8236184347914 | etot = -8.13378362771014
62000  ekin = 1.38555350991074 |  erot = 2.35258911579057 | epot = -11.871926253894 | etot = -8.13378362819272
63000  ekin = 1.43966787267651 |  erot = 2.32682848519601 | epot = -11.900279986355 | etot = -8.13378362848243
64000  ekin = 1.47909503438171 |  erot = 2.29144993715403 | epot = -11.904328600069 | etot = -8.13378362853328
65000  ekin = 1.50288049774089 |  erot = 2.24670960905121 | epot = -11.8833737351501 | etot = -8.13378362835799
66000  ekin = 1.51274507599011 |  erot = 2.19359684183007 | epot = -11.840125545851 | etot = -8.13378362803079
67000  ekin = 1.51208659633005 |  erot = 2.13371356874821 | epot = -11.7795837927185 | etot = -8.13378362764021
68000  ekin = 1.50462166617933 |  erot = 2.06904733139792 | epot = -11.7074526249093 | etot = -8.13378362733207
69000  ekin = 1.49293889166137 |  erot = 2.00167765430536 | epot = -11.6284001731037 | etot = -8.13378362713695
70000  ekin = 1.47793621174619 |  erot = 1.93361210060384 | epot = -11.5453319394055 | etot = -8.13378362705551
71000  ekin = 1.45891349102822 |  erot = 1.86670994694709 | epot = -11.4594070650146 | etot = -8.13378362703928
72000  ekin = 1.43427842101599 |  erot = 1.80270883809033 | epot = -11.3707708861216 | etot = -8.13378362701523
73000  ekin = 1.40258583891004 |  erot = 1.74331039193104 | epot = -11.2796798577521 | etot = -8.13378362691098
74000  ekin = 1.36359371155253 |  erot = 1.69025647754931 | epot = -11.1876338157821 | etot = -8.13378362668025
75000  ekin = 1.31886252565184 |  erot = 1.6453382071804 | epot = -11.0979843591716 | etot = -8.13378362633934
76000  ekin = 1.27181692773724 |  erot = 1.61030043593604 | epot = -11.0159009896012 | etot = -8.13378362592796
77000  ekin = 1.22767338921977 |  erot = 1.5867095255562 | epot = -10.9481665402833 | etot = -8.1337836255073
78000  ekin = 1.19187425881948 |  erot = 1.57555521121142 | epot = -10.9012130952115 | etot = -8.13378362518063
79000  ekin = 1.169224705888 |  erot = 1.57716601534101 | epot = -10.880174346204 | etot = -8.13378362497501
80000  ekin = 1.16351312193719 |  erot = 1.59112852775429 | epot = -10.8884252746034 | etot = -8.13378362491194
81000  ekin = 1.17709123428927 |  erot = 1.61633850893107 | epot = -10.9272133682121 | etot = -8.13378362499176
82000  ekin = 1.21064005584012 |  erot = 1.65118762576705 | epot = -10.9956113068161 | etot = -8.13378362520898
83000  ekin = 1.26297331742721 |  erot = 1.69382675572857 | epot = -11.090583698711 | etot = -8.13378362555518
84000  ekin = 1.3309264868765 |  erot = 1.74243133123682 | epot = -11.2071414441143 | etot = -8.13378362600098
85000  ekin = 1.40961218427356 |  erot = 1.79540640337829 | epot = -11.3388022141304 | etot = -8.13378362647858
86000  ekin = 1.49330005467918 |  erot = 1.85150064414016 | epot = -11.4785843257052 | etot = -8.13378362688587
87000  ekin = 1.57653380716701 |  erot = 1.90982169886833 | epot = -11.6201391333938 | etot = -8.1337836273585
88000  ekin = 1.65416408678855 |  erot = 1.9697172589549 | epot = -11.7576649732584 | etot = -8.13378362751492
89000  ekin = 1.7236021663418 |  erot = 2.03055934337538 | epot = -11.8879451373047 | etot = -8.1337836275875
90000  ekin = 1.78500984589397 |  erot = 2.09126219979612 | epot = -12.0100556734364 | etot = -8.13378362774632
91000  ekin = 1.83789001415886 |  erot = 2.15001837237367 | epot = -12.1216920145419 | etot = -8.13378362800933
92000  ekin = 1.87517809322883 |  erot = 2.20985483887536 | epot = -12.2188165602802 | etot = -8.13378362817599
93000  ekin = 1.90356384535088 |  erot = 2.2620490304797 | epot = -12.2993965046577 | etot = -8.13378362882709
94000  ekin = 1.91566641673054 |  erot = 2.30892488078289 | epot = -12.358374926361 | etot = -8.13378362884754
95000  ekin = 1.91095769384016 |  erot = 2.34997522030016 | epot = -12.3947165431009 | etot = -8.13378362896058
96000  ekin = 1.88948402498913 |  erot = 2.38411475951077 | epot = -12.4073824132806 | etot = -8.13378362878068
97000  ekin = 1.85343811133913 |  erot = 2.41133046292239 | epot = -12.3985522027165 | etot = -8.133783628455
98000  ekin = 1.80684275230293 |  erot = 2.43203206054843 | epot = -12.3726584408914 | etot = -8.13378362804005
99000  ekin = 1.75478641123195 |  erot = 2.44692977736859 | epot = -12.3354998162071 | etot = -8.1337836276066
100000  ekin = 1.69590911435713 |  erot = 2.45386958409539 | epot = -12.2835623848861 | etot = -8.13378368643362
101000  ekin = 1.68113249375274 |  erot = 2.36572534112466 | epot = -12.1806414642144 | etot = -8.13378362933695
102000  ekin = 1.72678565900173 |  erot = 2.35051337712518 | epot = -12.2110826965908 | etot = -8.13378366046387
103000  ekin = 1.68338599487706 |  erot = 2.35411811039624 | epot = -12.1712877656951 | etot = -8.1337836604218
104000  ekin = 1.6432358641285 |  erot = 2.35701648102738 | epot = -12.1340360056522 | etot = -8.13378366049628
105000  ekin = 1.60584113472047 |  erot = 2.35932964102267 | epot = -12.0989544363533 | etot = -8.13378366061015
106000  ekin = 1.57044138011796 |  erot = 2.36092776943241 | epot = -12.0651528102265 | etot = -8.1337836606761
107000  ekin = 1.53705400250956 |  erot = 2.36166253248211 | epot = -12.0325001956582 | etot = -8.13378366066651
108000  ekin = 1.50696391591106 |  erot = 2.3612855734921 | epot = -12.0020331499846 | etot = -8.13378366058147
109000  ekin = 1.48244426546633 |  erot = 2.35938088271015 | epot = -11.9756088087052 | etot = -8.13378366052873
110000  ekin = 1.4653991314805 |  erot = 2.35530683146169 | epot = -11.9544896235796 | etot = -8.13378366063737
111000  ekin = 1.45548748017591 |  erot = 2.34818065606101 | epot = -11.9374517972408 | etot = -8.13378366100385
112000  ekin = 1.44872729612929 |  erot = 2.33695548266959 | epot = -11.9194664403751 | etot = -8.13378366157626
113000  ekin = 1.43805495586476 |  erot = 2.32068695509408 | epot = -11.8925255730876 | etot = -8.13378366212875
114000  ekin = 1.4164078869086 |  erot = 2.29883886662121 | epot = -11.849030415891 | etot = -8.13378366236118
115000  ekin = 1.38063781822066 |  erot = 2.27153218573311 | epot = -11.785953665516 | etot = -8.13378366156222
116000  ekin = 1.33630540308397 |  erot = 2.23942220246135 | epot = -11.7095112666476 | etot = -8.13378366110225
117000  ekin = 1.2900122919829 |  erot = 2.20380811829913 | epot = -11.6276040708684 | etot = -8.13378366058636
118000  ekin = 1.247115488347 |  erot = 2.1663512401991 | epot = -11.5472503887777 | etot = -8.13378366023159
119000  ekin = 1.21073685469406 |  erot = 2.12872161390272 | epot = -11.4732421286713 | etot = -8.13378366007451
120000  ekin = 1.18115748419424 |  erot = 2.09256534610075 | epot = -11.4075064903302 | etot = -8.1337836600352
121000  ekin = 1.1568864210108 |  erot = 2.05947511288405 | epot = -11.3501451939311 | etot = -8.13378366003627
122000  ekin = 1.13593168276751 |  erot = 2.03084061403916 | epot = -11.3005559568654 | etot = -8.13378366005874
123000  ekin = 1.11638811965929 |  erot = 2.00761097209073 | epot = -11.2577827519202 | etot = -8.13378366017014
124000  ekin = 1.09616325371736 |  erot = 1.99019695902087 | epot = -11.2201438730115 | etot = -8.13378366027323
125000  ekin = 1.07358508996133 |  erot = 1.9782002603938 | epot = -11.185569010783 | etot = -8.13378366042788
126000  ekin = 1.0471219897851 |  erot = 1.97030937007254 | epot = -11.1512150205175 | etot = -8.1337836606599
127000  ekin = 1.01560359550549 |  erot = 1.96476336054366 | epot = -11.1141506168028 | etot = -8.13378366075363
128000  ekin = 0.979281846652566 |  erot = 1.95990906194979 | epot = -11.0729745693078 | etot = -8.13378366070541
129000  ekin = 0.940294043230247 |  erot = 1.95428772921585 | epot = -11.0283654329017 | etot = -8.13378366045558
130000  ekin = 0.902735823607695 |  erot = 1.94710047764794 | epot = -10.9836199613557 | etot = -8.13378366010006
131000  ekin = 0.872329759140164 |  erot = 1.93820575526862 | epot = -10.9443191739577 | etot = -8.13378365954888
132000  ekin = 0.855045600562731 |  erot = 1.9280327130372 | epot = -10.9168619728701 | etot = -8.1337836592702
133000  ekin = 0.854775562823026 |  erot = 1.91694878880999 | epot = -10.9055080107092 | etot = -8.13378365907617
134000  ekin = 0.873981086379366 |  erot = 1.90549522489486 | epot = -10.9132599702539 | etot = -8.13378365897967
135000  ekin = 0.913690181742226 |  erot = 1.89429118508551 | epot = -10.9417650257949 | etot = -8.13378365896717
136000  ekin = 0.973734451665956 |  erot = 1.88395321784271 | epot = -10.991471328536 | etot = -8.13378365902734
137000  ekin = 1.05255313135968 |  erot = 1.87488800080401 | epot = -11.0612247920062 | etot = -8.1337836598425
138000  ekin = 1.1443524994855 |  erot = 1.86626897212075 | epot = -11.1444051316857 | etot = -8.13378366007944
139000  ekin = 1.24448357091339 |  erot = 1.85821435006773 | epot = -11.2364815813237 | etot = -8.13378366034256
140000  ekin = 1.34860347563743 |  erot = 1.85113522079136 | epot = -11.3335223570933 | etot = -8.13378366066447
141000  ekin = 1.45162669266297 |  erot = 1.84534635451937 | epot = -11.4307567082671 | etot = -8.13378366108478
142000  ekin = 1.54663919844492 |  erot = 1.84103156950917 | epot = -11.5214544297491 | etot = -8.13378366179501
143000  ekin = 1.624701102394 |  erot = 1.8381305370262 | epot = -11.5966153018864 | etot = -8.13378366246618
144000  ekin = 1.67710589256281 |  erot = 1.8362281333642 | epot = -11.647117689026 | etot = -8.13378366309896
145000  ekin = 1.69650852159047 |  erot = 1.83477115527462 | epot = -11.665063340335 | etot = -8.13378366346992
146000  ekin = 1.67998250270657 |  erot = 1.83334306418692 | epot = -11.6471092301926 | etot = -8.13378366329908
147000  ekin = 1.63255928725521 |  erot = 1.83204496823006 | epot = -11.5983879178786 | etot = -8.1337836623933
148000  ekin = 1.56926257377469 |  erot = 1.83182914755796 | epot = -11.5348753821887 | etot = -8.13378366085605
149000  ekin = 1.51300824977767 |  erot = 1.83452727994325 | epot = -11.4813191889258 | etot = -8.1337836592049
150000  ekin = 1.48724963784758 |  erot = 1.8423583744857 | epot = -11.4633916705181 | etot = -8.13378365818478
151000  ekin = 1.50619323823043 |  erot = 1.85697474829969 | epot = -11.4969516448363 | etot = -8.1337836583062
152000  ekin = 1.56855992602655 |  erot = 1.87847282638502 | epot = -11.5808164119022 | etot = -8.1337836594906
153000  ekin = 1.65914489646664 |  erot = 1.90493735115918 | epot = -11.6978659087724 | etot = -8.13378366114656
154000  ekin = 1.75680978950816 |  erot = 1.93282846213561 | epot = -11.8234219142224 | etot = -8.1337836625786
155000  ekin = 1.84344901658496 |  erot = 1.95802697046838 | epot = -11.9352596504339 | etot = -8.13378366338056
156000  ekin = 1.90893795388474 |  erot = 1.97697594926069 | epot = -12.0196975667218 | etot = -8.13378366357638
157000  ekin = 1.95061494385936 |  erot = 1.98738512433497 | epot = -12.0717837316314 | etot = -8.13378366343703
158000  ekin = 1.96976178337709 |  erot = 1.98837447181471 | epot = -12.0919199183611 | etot = -8.13378366316926
159000  ekin = 1.9689263467721 |  erot = 1.98033790354809 | epot = -12.0830479131014 | etot = -8.13378366278123
160000  ekin = 1.95167601805916 |  erot = 1.96478101829954 | epot = -12.0502406985805 | etot = -8.13378366222182
161000  ekin = 1.92323849263746 |  erot = 1.94408396543493 | epot = -12.0011061196164 | etot = -8.13378366154404
162000  ekin = 1.89012785139857 |  erot = 1.92106669306924 | epot = -11.9449782053594 | etot = -8.13378366089155
163000  ekin = 1.85873206626314 |  erot = 1.89844726529901 | epot = -11.8909629919518 | etot = -8.13378366038961
164000  ekin = 1.83396756863881 |  erot = 1.87841814938192 | epot = -11.8461693781071 | etot = -8.13378366008635
165000  ekin = 1.81873657814023 |  erot = 1.86247026312258 | epot = -11.8149905012196 | etot = -8.13378365995679
166000  ekin = 1.81415764355257 |  erot = 1.85144128795265 | epot = -11.799382591451 | etot = -8.13378365994577
167000  ekin = 1.82014338462755 |  erot = 1.84569577974703 | epot = -11.7996228243659 | etot = -8.13378365999135
168000  ekin = 1.83604973591274 |  erot = 1.84534918673543 | epot = -11.8151825826929 | etot = -8.13378366004472
169000  ekin = 1.86118807803976 |  erot = 1.85047766429924 | epot = -11.8454494024151 | etot = -8.1337836600761
170000  ekin = 1.89508209492073 |  erot = 1.86127600745047 | epot = -11.8901417624552 | etot = -8.13378366008402
171000  ekin = 1.93739070093768 |  erot = 1.87813927221166 | epot = -11.9493136332463 | etot = -8.13378366009697
172000  ekin = 1.98746465492667 |  erot = 1.90165699566189 | epot = -12.0229053107602 | etot = -8.13378366017168
173000  ekin = 2.04358732260705 |  erot = 1.93252470914486 | epot = -12.109895692118 | etot = -8.13378366036611
174000  ekin = 2.10212586880669 |  erot = 1.97139111366147 | epot = -12.2073006432563 | etot = -8.13378366078809
175000  ekin = 2.15653164019896 |  erot = 2.01868623997458 | epot = -12.3090015416379 | etot = -8.13378366146437
176000  ekin = 2.19700590631309 |  erot = 2.07444517694565 | epot = -12.4052347456349 | etot = -8.1337836623762
177000  ekin = 2.21275117726746 |  erot = 2.13809655452284 | epot = -12.4846313951111 | etot = -8.13378366332081
178000  ekin = 2.19103084137815 |  erot = 2.20849637361849 | epot = -12.5333108794525 | etot = -8.13378366445582
179000  ekin = 2.05002958755726 |  erot = 2.27647492405874 | epot = -12.4602881626281 | etot = -8.1337836510121
180000  ekin = 2.00100366281067 |  erot = 2.36086155180546 | epot = -12.49564888609 | etot = -8.13378367147388
181000  ekin = 1.8288534450279 |  erot = 2.44444025932696 | epot = -12.4070773745335 | etot = -8.13378367017865
182000  ekin = 1.62724610560555 |  erot = 2.53221325513861 | epot = -12.2932430288214 | etot = -8.13378366807725
183000  ekin = 1.42880501135628 |  erot = 2.62540058534334 | epot = -12.1879892625416 | etot = -8.13378366584192
184000  ekin = 1.26714962832088 |  erot = 2.7256198185043 | epot = -12.1265531111179 | etot = -8.13378366429267
185000  ekin = 1.16606552757952 |  erot = 2.83366450732246 | epot = -12.1335136988422 | etot = -8.13378366394018
186000  ekin = 1.13327188784905 |  erot = 2.9481145946053 | epot = -12.2151701472119 | etot = -8.13378366475749
187000  ekin = 1.16127663962613 |  erot = 3.06454091657715 | epot = -12.359601222548 | etot = -8.13378366634471
188000  ekin = 1.23275799228701 |  erot = 3.1757811961417 | epot = -12.5423228566636 | etot = -8.13378366823488
189000  ekin = 1.32637276316142 |  erot = 3.27316596760505 | epot = -12.7333224008244 | etot = -8.13378367005794
190000  ekin = 1.42100795808875 |  erot = 3.34817980173613 | epot = -12.9029714313709 | etot = -8.133783671546
191000  ekin = 1.497941115499 |  erot = 3.39410379075318 | epot = -13.0258285788623 | etot = -8.13378367261012
192000  ekin = 1.54262156679692 |  erot = 3.40720165429198 | epot = -13.0836068940671 | etot = -8.13378367297819
193000  ekin = 1.54797240883516 |  erot = 3.38715231466111 | epot = -13.0689083961198 | etot = -8.13378367262352
194000  ekin = 1.5146758266145 |  erot = 3.33705387754707 | epot = -12.9855133757562 | etot = -8.13378367159466
195000  ekin = 1.4510162174822 |  erot = 3.26269312885193 | epot = -12.8474930164469 | etot = -8.13378367011281
196000  ekin = 1.37083042970741 |  erot = 3.17132041678875 | epot = -12.6759345150004 | etot = -8.13378366850426
197000  ekin = 1.29009120536681 |  erot = 3.07036265935768 | epot = -12.4942375317748 | etot = -8.13378366705027
198000  ekin = 1.22364196643915 |  erot = 2.96652382643971 | epot = -12.3239494587828 | etot = -8.13378366590395
199000  ekin = 1.18307710083215 |  erot = 2.86542144217735 | epot = -12.1822822081298 | etot = -8.13378366512034
200000  ekin = 1.17564340951891 |  erot = 2.77158698378726 | epot = -12.08101405803 | etot = -8.13378366472381
201000  ekin = 1.20359619391725 |  erot = 2.68856918537164 | epot = -12.0259490440296 | etot = -8.13378366474074
202000  ekin = 1.26374726413778 |  erot = 2.61894189740044 | epot = -12.0164728267168 | etot = -8.13378366517858
203000  ekin = 1.34751597563111 |  erot = 2.5641961642644 | epot = -12.0454958058711 | etot = -8.1337836659756
204000  ekin = 1.4420333789 |  erot = 2.52468734318921 | epot = -12.1005043890647 | etot = -8.13378366697548
205000  ekin = 1.53246038205356 |  erot = 2.49972903140503 | epot = -12.165973081407 | etot = -8.13378366794838
206000  ekin = 1.60510558525672 |  erot = 2.48793425280269 | epot = -12.2268235067222 | etot = -8.13378366866274
207000  ekin = 1.65039556723163 |  erot = 2.48771410987728 | epot = -12.2718933460775 | etot = -8.13378366896861
208000  ekin = 1.66471924263862 |  erot = 2.49772662877187 | epot = -12.2962295402584 | etot = -8.13378366884796
209000  ekin = 1.65060780281967 |  erot = 2.51706178773877 | epot = -12.3014532589743 | etot = -8.13378366841583
210000  ekin = 1.61529613530136 |  erot = 2.54506818372093 | epot = -12.2941479869024 | etot = -8.13378366788015
211000  ekin = 1.56815998339932 |  erot = 2.58088870847272 | epot = -12.2828323593495 | etot = -8.13378366747745
212000  ekin = 1.51779769211968 |  erot = 2.62289115839991 | epot = -12.2744725179135 | etot = -8.13378366739393
213000  ekin = 1.46970697786425 |  erot = 2.66822787294316 | epot = -12.2717185184989 | etot = -8.13378366769152
214000  ekin = 1.42551121611961 |  erot = 2.71271314915553 | epot = -12.2720080334467 | etot = -8.13378366817155
215000  ekin = 1.38449526701803 |  erot = 2.7511385880982 | epot = -12.2694175238342 | etot = -8.13378366871793
216000  ekin = 1.34611450510699 |  erot = 2.77818905444599 | epot = -12.2580872284518 | etot = -8.13378366889881
217000  ekin = 1.31348152811976 |  erot = 2.78964053187633 | epot = -12.2369057285555 | etot = -8.13378366855939
218000  ekin = 1.29458639919521 |  erot = 2.78319145109104 | epot = -12.2115615182396 | etot = -8.13378366795338
219000  ekin = 1.29978448123172 |  erot = 2.75785865494189 | epot = -12.1914268036078 | etot = -8.13378366743422
220000  ekin = 1.33694784981821 |  erot = 2.71363634301917 | epot = -12.1843678601781 | etot = -8.13378366734072
221000  ekin = 1.40745643921158 |  erot = 2.65092088134214 | epot = -12.1921609882717 | etot = -8.13378366771801
222000  ekin = 1.50572252626037 |  erot = 2.57029476952229 | epot = -12.2098009641041 | etot = -8.13378366832145
223000  ekin = 1.62210843375822 |  erot = 2.47289007334038 | epot = -12.2287821759284 | etot = -8.13378366882977
224000  ekin = 1.74679393022962 |  erot = 2.36097135919273 | epot = -12.2415489584555 | etot = -8.1337836690331
225000  ekin = 1.87205636329983 |  erot = 2.23842454190452 | epot = -12.2442645742132 | etot = -8.13378366900889
226000  ekin = 1.99134598106693 |  erot = 2.11064622098339 | epot = -12.2357758711291 | etot = -8.13378366907874
227000  ekin = 2.09586639151688 |  erot = 1.9836470405111 | epot = -12.2132971015578 | etot = -8.1337836695298
228000  ekin = 2.17197666667429 |  erot = 1.86293503717718 | epot = -12.1686953741908 | etot = -8.13378367033934
229000  ekin = 2.20263173192613 |  erot = 1.75265294154653 | epot = -12.0890683445902 | etot = -8.13378367111751
230000  ekin = 2.17321554606884 |  erot = 1.65532359970799 | epot = -11.962322817129 | etot = -8.13378367135214
231000  ekin = 2.07854920573187 |  erot = 1.57213281486656 | epot = -11.7844656913356 | etot = -8.13378367073721
232000  ekin = 1.92671195021928 |  erot = 1.50340464294783 | epot = -11.5639002625319 | etot = -8.13378366936478
233000  ekin = 1.73729705956033 |  erot = 1.44896834770205 | epot = -11.3200490749319 | etot = -8.13378366766954
234000  ekin = 1.53556953354794 |  erot = 1.40834045937464 | epot = -11.0776936590029 | etot = -8.1337836660803
235000  ekin = 1.34558700580159 |  erot = 1.3807881807386 | epot = -10.8601588514747 | etot = -8.1337836649345
236000  ekin = 1.18525206422614 |  erot = 1.36570263210361 | epot = -10.6847383605466 | etot = -8.13378366421685
237000  ekin = 1.06637029724376 |  erot = 1.36251012102814 | epot = -10.5626640820869 | etot = -8.13378366381504
238000  ekin = 0.995491212021581 |  erot = 1.37070429771385 | epot = -10.4999791734001 | etot = -8.13378366366462
239000  ekin = 0.975031518632357 |  erot = 1.38971384126892 | epot = -10.4985290236709 | etot = -8.13378366376961
240000  ekin = 1.00352423904799 |  erot = 1.4186603402425 | epot = -10.5559682434643 | etot = -8.13378366417385
241000  ekin = 1.07556704774296 |  erot = 1.4561290024684 | epot = -10.6654797151295 | etot = -8.13378366491819
242000  ekin = 1.181223750674 |  erot = 1.4999462985551 | epot = -10.8149537152543 | etot = -8.13378366602516
243000  ekin = 1.30634294707531 |  erot = 1.54703331020111 | epot = -10.9871599246178 | etot = -8.13378366734133
244000  ekin = 1.43466609576245 |  erot = 1.59374373480276 | epot = -11.1621934990209 | etot = -8.13378366845571
245000  ekin = 1.55091944171336 |  erot = 1.63606515904703 | epot = -11.3207682704746 | etot = -8.13378366971422
246000  ekin = 1.63963426714666 |  erot = 1.67091688012798 | epot = -11.4443348179118 | etot = -8.13378367063717
247000  ekin = 1.68912292676175 |  erot = 1.69643192578676 | epot = -11.5193385235887 | etot = -8.13378367104022
248000  ekin = 1.6941862336655 |  erot = 1.71223298155103 | epot = -11.5402028860541 | etot = -8.13378367083754
249000  ekin = 1.65708464250004 |  erot = 1.71943097162701 | epot = -11.5102992843223 | etot = -8.13378367019521
250000  ekin = 1.58639864685302 |  erot = 1.72015982289469 | epot = -11.4403421388622 | etot = -8.13378366911452
251000  ekin = 1.49555936407705 |  erot = 1.71716072440145 | epot = -11.3465037564436 | etot = -8.13378366796504
252000  ekin = 1.39930346630726 |  erot = 1.71298107622714 | epot = -11.246068209527 | etot = -8.13378366699262
253000  ekin = 1.31034898359353 |  erot = 1.7094909345958 | epot = -11.1536235845407 | etot = -8.13378366635142
254000  ekin = 1.2371619412312 |  erot = 1.70776552340135 | epot = -11.0787111307318 | etot = -8.13378366609924
255000  ekin = 1.18305733845021 |  erot = 1.70821467485082 | epot = -11.025055679449 | etot = -8.13378366614792
256000  ekin = 1.14729363432525 |  erot = 1.71063275158162 | epot = -10.9917100522893 | etot = -8.13378366638239
257000  ekin = 1.12650460108405 |  erot = 1.71454195552766 | epot = -10.9748302232623 | etot = -8.13378366665057
258000  ekin = 1.11669715917654 |  erot = 1.71938873503266 | epot = -10.9698695610639 | etot = -8.13378366685468
259000  ekin = 1.11461746403651 |  erot = 1.72463904931039 | epot = -10.9730401803348 | etot = -8.1337836669879
260000  ekin = 1.11796213299103 |  erot = 1.72976096813909 | epot = -10.9815067682331 | etot = -8.13378366710298
261000  ekin = 1.12495929560669 |  erot = 1.73429797646774 | epot = -10.993040939208 | etot = -8.13378366713361
262000  ekin = 1.1341533488674 |  erot = 1.73799782227159 | epot = -11.0059348383753 | etot = -8.13378366723629
263000  ekin = 1.14419248657774 |  erot = 1.74014341283951 | epot = -11.0181195666646 | etot = -8.13378366724741
264000  ekin = 1.1548671303312 |  erot = 1.74014049676722 | epot = -11.028791294218 | etot = -8.13378366711953
265000  ekin = 1.16757148072568 |  erot = 1.73774643956177 | epot = -11.0391015871645 | etot = -8.13378366687709
266000  ekin = 1.1849252333486 |  erot = 1.73313774545408 | epot = -11.0518466454033 | etot = -8.13378366660062
267000  ekin = 1.20976553808929 |  erot = 1.72682085390413 | epot = -11.0703700583747 | etot = -8.13378366638127
268000  ekin = 1.24403111906074 |  erot = 1.71946869065483 | epot = -11.0972834760003 | etot = -8.13378366628472
269000  ekin = 1.28796807043469 |  erot = 1.71176934564122 | epot = -11.1335210824127 | etot = -8.13378366633677
270000  ekin = 1.33984072253786 |  erot = 1.70434119615672 | epot = -11.177965585218 | etot = -8.13378366652336
271000  ekin = 1.39615730896615 |  erot = 1.69774776464927 | epot = -11.2276887403919 | etot = -8.13378366677645
272000  ekin = 1.45234426470956 |  erot = 1.69276715684634 | epot = -11.2788950886302 | etot = -8.13378366707428
273000  ekin = 1.5036813307029 |  erot = 1.68992546991428 | epot = -11.327390467932 | etot = -8.13378366731485
274000  ekin = 1.54639996326169 |  erot = 1.68983337629085 | epot = -11.3700170069651 | etot = -8.1337836674126
275000  ekin = 1.57877490149241 |  erot = 1.69332235277553 | epot = -11.4058809216001 | etot = -8.13378366733213
276000  ekin = 1.60168052283763 |  erot = 1.70138855155687 | epot = -11.4368527414928 | etot = -8.1337836670983
277000  ekin = 1.61832490283355 |  erot = 1.71502642603468 | epot = -11.4671349956715 | etot = -8.13378366680332
278000  ekin = 1.63311060675445 |  erot = 1.73495415768278 | epot = -11.5018484310168 | etot = -8.13378366657961
279000  ekin = 1.64995273994911 |  erot = 1.76130541528109 | epot = -11.5450418217756 | etot = -8.13378366654539
280000  ekin = 1.67073877093274 |  erot = 1.79339849893376 | epot = -11.5979209366121 | etot = -8.13378366674555
281000  ekin = 1.69438407984666 |  erot = 1.82970064438691 | epot = -11.6578683914554 | etot = -8.13378366722187
282000  ekin = 1.71376506080336 |  erot = 1.86795891950391 | epot = -11.7155076481269 | etot = -8.13378366781961
283000  ekin = 1.72224450524704 |  erot = 1.90529068548226 | epot = -11.7613188590704 | etot = -8.13378366834112
284000  ekin = 1.71505262176595 |  erot = 1.93881515489582 | epot = -11.7876514453481 | etot = -8.13378366868637
285000  ekin = 1.68954869055872 |  erot = 1.96608819497549 | epot = -11.7894205543567 | etot = -8.13378366882251
286000  ekin = 1.64555137747128 |  erot = 1.98537597121299 | epot = -11.7647110174581 | etot = -8.13378366877384
287000  ekin = 1.58495470812653 |  erot = 1.99578989882459 | epot = -11.7145282755431 | etot = -8.13378366859199
288000  ekin = 1.51101761585145 |  erot = 1.99729776792832 | epot = -11.64209905211 | etot = -8.13378366833025
289000  ekin = 1.42766231980646 |  erot = 1.99063899576513 | epot = -11.5520849836054 | etot = -8.1337836680338
290000  ekin = 1.33894501486 |  erot = 1.97716758999243 | epot = -11.4498962725845 | etot = -8.13378366773205
291000  ekin = 1.24881721187878 |  erot = 1.95864649303114 | epot = -11.3412473723325 | etot = -8.13378366742254
292000  ekin = 1.16137515575549 |  erot = 1.93702958191913 | epot = -11.2321884047305 | etot = -8.13378366705587
293000  ekin = 1.08169833470597 |  erot = 1.91427738455447 | epot = -11.129759385818 | etot = -8.13378366655753
294000  ekin = 1.01689863826209 |  erot = 1.89223243581362 | epot = -11.0429147399733 | etot = -8.13378366589759
295000  ekin = 0.976377352948519 |  erot = 1.8725332495662 | epot = -10.9826942676935 | etot = -8.13378366517883
296000  ekin = 0.970182395977612 |  erot = 1.856506795506 | epot = -10.9604728561407 | etot = -8.13378366465707
297000  ekin = 1.00537151816975 |  erot = 1.84499118418925 | epot = -10.9841463669851 | etot = -8.1337836646261
298000  ekin = 1.0820053414686 |  erot = 1.8381241771598 | epot = -11.053913183863 | etot = -8.13378366523464
299000  ekin = 1.19125189129986 |  erot = 1.83519410294562 | epot = -11.1602296606225 | etot = -8.133783666377
300000  ekin = 1.31698721061653 |  erot = 1.83465168975704 | epot = -11.2854225681214 | etot = -8.13378366774779
301000  ekin = 1.44008784809662 |  erot = 1.83433803115752 | epot = -11.4082095482474 | etot = -8.1337836689933
302000  ekin = 1.54329548540628 |  erot = 1.83190000196972 | epot = -11.508979157216 | etot = -8.13378366984002
303000  ekin = 1.61484992407564 |  erot = 1.82529439832878 | epot = -11.5739279925593 | etot = -8.13378367015488
304000  ekin = 1.65011047810622 |  erot = 1.81324433416637 | epot = -11.597138482206 | etot = -8.13378366993338
305000  ekin = 1.65140814366828 |  erot = 1.79549497030066 | epot = -11.5806867832598 | etot = -8.13378366929083
306000  ekin = 1.62643416627393 |  erot = 1.7728021891353 | epot = -11.5330200238192 | etot = -8.13378366840998
307000  ekin = 1.58577500467161 |  erot = 1.74668500707778 | epot = -11.4662436792448 | etot = -8.13378366749541
308000  ekin = 1.54030424866671 |  erot = 1.71903801624148 | epot = -11.3931259316238 | etot = -8.13378366671559
309000  ekin = 1.49900091050533 |  erot = 1.69173690591341 | epot = -11.3245214826084 | etot = -8.13378366618961
310000  ekin = 1.46747597212593 |  erot = 1.66636932778998 | epot = -11.2676289658585 | etot = -8.13378366594254
311000  ekin = 1.44771419446452 |  erot = 1.64410448876254 | epot = -11.2256023491804 | etot = -8.13378366595332
312000  ekin = 1.43839141863731 |  erot = 1.62568199895679 | epot = -11.1978570837373 | etot = -8.13378366614317
313000  ekin = 1.43594352565711 |  erot = 1.61150443049011 | epot = -11.181231622558 | etot = -8.13378366641082
314000  ekin = 1.43595255618062 |  erot = 1.60177116104355 | epot = -11.1715073838812 | etot = -8.133783666657
315000  ekin = 1.43500742741785 |  erot = 1.59648896098498 | epot = -11.1652800551119 | etot = -8.13378366670911
316000  ekin = 1.43108473246719 |  erot = 1.59565804393459 | epot = -11.1605264431261 | etot = -8.13378366672436
317000  ekin = 1.42390336285038 |  erot = 1.59957952106082 | epot = -11.1572665504414 | etot = -8.13378366653018
318000  ekin = 1.4163129537973 |  erot = 1.6086681920707 | epot = -11.15876481203 | etot = -8.13378366616197
319000  ekin = 1.41381426233842 |  erot = 1.62334142232186 | epot = -11.1709393503834 | etot = -8.13378366572308
320000  ekin = 1.42315030252803 |  erot = 1.64384116840212 | epot = -11.2007751362948 | etot = -8.13378366536469
321000  ekin = 1.45024845494465 |  erot = 1.67003325940062 | epot = -11.2540653795828 | etot = -8.13378366523757
322000  ekin = 1.49815500536836 |  erot = 1.7012381817136 | epot = -11.3331768525244 | etot = -8.13378366544243
323000  ekin = 1.56569352501668 |  erot = 1.73609284126566 | epot = -11.4355700322994 | etot = -8.13378366601705
324000  ekin = 1.64679224020616 |  erot = 1.77264010660034 | epot = -11.5532160138007 | etot = -8.13378366699418
325000  ekin = 1.731637756301 |  erot = 1.80818795205591 | epot = -11.6736093764002 | etot = -8.13378366804328
326000  ekin = 1.80750329207282 |  erot = 1.83980749295703 | epot = -11.7810944543774 | etot = -8.13378366934753
327000  ekin = 1.85797659455449 |  erot = 1.8653734654215 | epot = -11.8571337303024 | etot = -8.13378367032636
328000  ekin = 1.87027520747727 |  erot = 1.88392315073405 | epot = -11.8879820288707 | etot = -8.13378367065939
329000  ekin = 1.83949589053631 |  erot = 1.89597309719022 | epot = -11.8692526579052 | etot = -8.13378367017869
330000  ekin = 1.77117100867895 |  erot = 1.90323589019665 | epot = -11.8081905678717 | etot = -8.13378366899613
331000  ekin = 1.68023517872375 |  erot = 1.90771959425718 | epot = -11.7217384405261 | etot = -8.13378366754513
332000  ekin = 1.58599656570632 |  erot = 1.91066851347429 | epot = -11.6304487455309 | etot = -8.13378366635026
333000  ekin = 1.5056664989093 |  erot = 1.91203797344038 | epot = -11.5514881380482 | etot = -8.13378366569857
334000  ekin = 1.44997196058444 |  erot = 1.91073772770257 | epot = -11.4944933538478 | etot = -8.13378366556081
335000  ekin = 1.42175053140423 |  erot = 1.90515605629362 | epot = -11.4606902539319 | etot = -8.13378366623407
336000  ekin = 1.41662531058159 |  erot = 1.8933003365171 | epot = -11.4437093137238 | etot = -8.13378366662511
337000  ekin = 1.42902342419719 |  erot = 1.87459660541774 | epot = -11.437403696562 | etot = -8.1337836669471
338000  ekin = 1.45347553473973 |  erot = 1.84924982279379 | epot = -11.4365090247059 | etot = -8.13378366717242
339000  ekin = 1.48532648332118 |  erot = 1.8178982538888 | epot = -11.4370084045438 | etot = -8.13378366733381
340000  ekin = 1.5206811321235 |  erot = 1.78131054290488 | epot = -11.4357753425028 | etot = -8.13378366747442
341000  ekin = 1.5560607012867 |  erot = 1.74019406298547 | epot = -11.4300384318867 | etot = -8.13378366761458
342000  ekin = 1.5881969353617 |  erot = 1.69515176482859 | epot = -11.4171323679308 | etot = -8.13378366774051
343000  ekin = 1.61415529814391 |  erot = 1.64675903934965 | epot = -11.3946980053084 | etot = -8.13378366781486
344000  ekin = 1.63171879306888 |  erot = 1.59569319794136 | epot = -11.3611956588114 | etot = -8.13378366780119
345000  ekin = 1.63976605961112 |  erot = 1.54282704208813 | epot = -11.3163767693943 | etot = -8.13378366769505
346000  ekin = 1.63837200137938 |  erot = 1.48918714016417 | epot = -11.2613428090645 | etot = -8.13378366752095
347000  ekin = 1.62852754177094 |  erot = 1.43587351564442 | epot = -11.1981847247463 | etot = -8.13378366733095
348000  ekin = 1.61158889283382 |  erot = 1.38392546939876 | epot = -11.1292980294051 | etot = -8.13378366717256
349000  ekin = 1.58873557439401 |  erot = 1.33422850519908 | epot = -11.0567477466666 | etot = -8.13378366707352
350000  ekin = 1.56064786721506 |  erot = 1.28749851959225 | epot = -10.9819300538393 | etot = -8.133783667032
351000  ekin = 1.52754191191582 |  erot = 1.24434620358759 | epot = -10.9056717825171 | etot = -8.13378366701369
352000  ekin = 1.4896029920435 |  erot = 1.20538641997412 | epot = -10.8287730789776 | etot = -8.13378366696
353000  ekin = 1.44778264503513 |  erot = 1.17134399708514 | epot = -10.7529103089079 | etot = -8.13378366678765
354000  ekin = 1.40533100953985 |  erot = 1.14324844921974 | epot = -10.6823631252455 | etot = -8.13378366648586
355000  ekin = 1.36869095864135 |  erot = 1.12250242068724 | epot = -10.6249770453834 | etot = -8.13378366605481
356000  ekin = 1.34490175996212 |  erot = 1.10992990777609 | epot = -10.588615333185 | etot = -8.13378366544681
357000  ekin = 1.34315796276663 |  erot = 1.10621719879137 | epot = -10.5831588263844 | etot = -8.13378366482638
358000  ekin = 1.37283801208499 |  erot = 1.11171347587297 | epot = -10.618335152414 | etot = -8.13378366445604
359000  ekin = 1.43996759058892 |  erot = 1.12612871057023 | epot = -10.6998799657465 | etot = -8.13378366458732
360000  ekin = 1.54388445914602 |  erot = 1.14830381563771 | epot = -10.8259719401018 | etot = -8.13378366531803
361000  ekin = 1.67586531509686 |  erot = 1.17618905418874 | epot = -10.9858380358563 | etot = -8.13378366657072
362000  ekin = 1.82005627456021 |  erot = 1.20703160753137 | epot = -11.1608715500474 | etot = -8.13378366795581
363000  ekin = 1.95850583937744 |  erot = 1.23798141777555 | epot = -11.3302709261669 | etot = -8.13378366901392
364000  ekin = 2.07580017664769 |  erot = 1.26672677095 | epot = -11.4763106177197 | etot = -8.13378367012197
365000  ekin = 2.15891662517632 |  erot = 1.29173621495484 | epot = -11.5844365106018 | etot = -8.13378367047063
366000  ekin = 2.20238380195782 |  erot = 1.31262064914574 | epot = -11.6487881213357 | etot = -8.13378367023209
367000  ekin = 2.20851727275109 |  erot = 1.3302285758768 | epot = -11.6725295182382 | etot = -8.13378366961033
368000  ekin = 2.18513118770146 |  erot = 1.34632721319828 | epot = -11.6652420695979 | etot = -8.13378366869816
369000  ekin = 2.14321144646092 |  erot = 1.36315448463159 | epot = -11.6401495988962 | etot = -8.13378366780368
370000  ekin = 2.09388282412721 |  erot = 1.38296858720292 | epot = -11.610635078507 | etot = -8.1337836671769
371000  ekin = 2.04539161606069 |  erot = 1.40758201280184 | epot = -11.5867572956866 | etot = -8.13378366682408
372000  ekin = 2.00261126514151 |  erot = 1.43827057512691 | epot = -11.5746655069345 | etot = -8.13378366666611
373000  ekin = 1.9679830247248 |  erot = 1.47584503943896 | epot = -11.5776117307442 | etot = -8.13378366658046
374000  ekin = 1.94276422014745 |  erot = 1.52074221163701 | epot = -11.5972900983328 | etot = -8.13378366654834
375000  ekin = 1.92741631545088 |  erot = 1.57302624843962 | epot = -11.6342262305083 | etot = -8.13378366661785
376000  ekin = 1.92110841836885 |  erot = 1.63232320681529 | epot = -11.6872152920332 | etot = -8.13378366684908
377000  ekin = 1.92083197490172 |  erot = 1.69770894534065 | epot = -11.7523245875449 | etot = -8.13378366730255
378000  ekin = 1.92097158012803 |  erot = 1.76763055654574 | epot = -11.8223858045469 | etot = -8.13378366787308
379000  ekin = 1.91438056917716 |  erot = 1.83964318713378 | epot = -11.887807424962 | etot = -8.13378366865101
380000  ekin = 1.89241520120417 |  erot = 1.91106138177324 | epot = -11.9372602523353 | etot = -8.13378366935793
381000  ekin = 1.8471184312225 |  erot = 1.97933543814959 | epot = -11.9602375392381 | etot = -8.13378366986599
382000  ekin = 1.7736482178953 |  erot = 2.04210934440452 | epot = -11.9495412323569 | etot = -8.13378367005703
383000  ekin = 1.67178472400287 |  erot = 2.0975456213714 | epot = -11.9031140151976 | etot = -8.13378366982331
384000  ekin = 1.54709556481753 |  erot = 2.1443870823471 | epot = -11.8252663163842 | etot = -8.13378366921959
385000  ekin = 1.41093432867776 |  erot = 2.18184182145381 | epot = -11.7265598182875 | etot = -8.13378366815592
386000  ekin = 1.279589369943 |  erot = 2.2105134023124 | epot = -11.6238864391444 | etot = -8.13378366688899
387000  ekin = 1.17137861198067 |  erot = 2.23163165239907 | epot = -11.5367939301701 | etot = -8.13378366579039
388000  ekin = 1.10179780401959 |  erot = 2.24634754527606 | epot = -11.4819290145231 | etot = -8.13378366522749
389000  ekin = 1.07882148968261 |  erot = 2.25505587957427 | epot = -11.4676610376575 | etot = -8.13378366840058
390000  ekin = 1.07051570136005 |  erot = 2.26936424220487 | epot = -11.4736636037143 | etot = -8.13378366014935
391000  ekin = 1.12513305991148 |  erot = 2.28557987987315 | epot = -11.5444966077372 | etot = -8.13378366795261
392000  ekin = 1.21295440172123 |  erot = 2.27063670340183 | epot = -11.6173747716285 | etot = -8.13378366650543
393000  ekin = 1.30924312365378 |  erot = 2.24076930893513 | epot = -11.683796099717 | etot = -8.13378366712807
394000  ekin = 1.40561895760739 |  erot = 2.19794335034434 | epot = -11.7373459753422 | etot = -8.13378366739042
395000  ekin = 1.49662707239616 |  erot = 2.14293675801993 | epot = -11.7733474977512 | etot = -8.13378366733508
396000  ekin = 1.58077727991969 |  erot = 2.07761988891196 | epot = -11.792180835881 | etot = -8.13378366704934
397000  ekin = 1.65955042582415 |  erot = 2.00469837191183 | epot = -11.7980324643645 | etot = -8.13378366662848
398000  ekin = 1.73622447989209 |  erot = 1.92743077253051 | epot = -11.7974389185684 | etot = -8.13378366614577
399000  ekin = 1.81471876942765 |  erot = 1.8494145504968 | epot = -11.7979169856437 | etot = -8.13378366571927
400000  ekin = 1.89831345083695 |  erot = 1.77428869309401 | epot = -11.8063858093413 | etot = -8.13378366541035
401000  ekin = 1.98857882165351 |  erot = 1.70555701947808 | epot = -11.8279195064089 | etot = -8.13378366527734
402000  ekin = 2.08469272454857 |  erot = 1.64640053761454 | epot = -11.8648769274959 | etot = -8.13378366533279
403000  ekin = 2.18333492883491 |  erot = 1.59947809827837 | epot = -11.9165966926837 | etot = -8.1337836655704
404000  ekin = 2.27899469657219 |  erot = 1.56671457666822 | epot = -11.9794929390982 | etot = -8.13378366585782
405000  ekin = 2.36506409046185 |  erot = 1.54904572147417 | epot = -12.0478934783847 | etot = -8.1337836664487
406000  ekin = 2.43306193249191 |  erot = 1.54630434412399 | epot = -12.1131499437736 | etot = -8.1337836671577
407000  ekin = 2.47364186379768 |  erot = 1.5568918641324 | epot = -12.1643173959487 | etot = -8.13378366801858
408000  ekin = 2.47760299471673 |  erot = 1.57810641384648 | epot = -12.1894930773265 | etot = -8.13378366876327
409000  ekin = 2.4382285084171 |  erot = 1.60664113475668 | epot = -12.178653312252 | etot = -8.13378366907818
410000  ekin = 2.35516301279347 |  erot = 1.63934184028583 | epot = -12.1282885218094 | etot = -8.13378366873009
411000  ekin = 2.23661952276313 |  erot = 1.67408087730862 | epot = -12.0444840678172 | etot = -8.13378366774542
412000  ekin = 2.09851267461095 |  erot = 1.71012170017843 | epot = -11.9424180412092 | etot = -8.13378366641982
413000  ekin = 1.96056484793225 |  erot = 1.74778804011416 | epot = -11.8421365532005 | etot = -8.13378366515414
414000  ekin = 1.84128090480977 |  erot = 1.78771082122451 | epot = -11.7627753903047 | etot = -8.13378366427038
415000  ekin = 1.75390442335788 |  erot = 1.83009103154826 | epot = -11.7177791188323 | etot = -8.1337836639262
416000  ekin = 1.70439570487649 |  erot = 1.87425008286035 | epot = -11.7124294518644 | etot = -8.13378366412755
417000  ekin = 1.69131554252896 |  erot = 1.91850147884077 | epot = -11.7436006861864 | etot = -8.13378366481671
418000  ekin = 1.70689490031854 |  erot = 1.96025799789122 | epot = -11.8009365639672 | etot = -8.13378366575746
419000  ekin = 1.73962222230471 |  erot = 1.99637255841019 | epot = -11.869778447504 | etot = -8.13378366678912
420000  ekin = 1.77669286262611 |  erot = 2.02357619715232 | epot = -11.9340527274821 | etot = -8.13378366770363
421000  ekin = 1.80657824083088 |  erot = 2.0390304955587 | epot = -11.9793924047172 | etot = -8.13378366832758
422000  ekin = 1.82111290086087 |  erot = 2.04088419799675 | epot = -11.9957807674307 | etot = -8.1337836685731
423000  ekin = 1.81648584568909 |  erot = 2.0286524472983 | epot = -11.9789219614468 | etot = -8.13378366845942
424000  ekin = 1.79301691785408 |  erot = 2.00326876348485 | epot = -11.9300693494129 | etot = -8.13378366807395
425000  ekin = 1.75424046968515 |  erot = 1.96680784721989 | epot = -11.8548319844132 | etot = -8.13378366750818
426000  ekin = 1.70601392329758 |  erot = 1.92202692836773 | epot = -11.7618245184927 | etot = -8.13378366682737
427000  ekin = 1.65580906013621 |  erot = 1.87186985440796 | epot = -11.6614625806822 | etot = -8.13378366613806
428000  ekin = 1.61207963970224 |  erot = 1.81905558541851 | epot = -11.5649188905569 | etot = -8.13378366543618
429000  ekin = 1.58339999423702 |  erot = 1.76579893171346 | epot = -11.4829825908613 | etot = -8.13378366491087
430000  ekin = 1.57646033948327 |  erot = 1.71346152698942 | epot = -11.4237055311742 | etot = -8.13378366470147
431000  ekin = 1.59418488211705 |  erot = 1.66239892772478 | epot = -11.3903674747316 | etot = -8.13378366488973
432000  ekin = 1.63452809772618 |  erot = 1.61205574803632 | epot = -11.3803675111957 | etot = -8.13378366543322
433000  ekin = 1.69077410977768 |  erot = 1.56136635610154 | epot = -11.38592413202 | etot = -8.13378366614078
434000  ekin = 1.75368500743392 |  erot = 1.50939558465953 | epot = -11.3968642588286 | etot = -8.13378366673515
435000  ekin = 1.81477188941788 |  erot = 1.45598133799461 | epot = -11.4045368944149 | etot = -8.13378366700236
436000  ekin = 1.86895151228523 |  erot = 1.40204530897591 | epot = -11.4047804880971 | etot = -8.13378366683601
437000  ekin = 1.91551323813655 |  erot = 1.34941425923086 | epot = -11.398711163956 | etot = -8.13378366658857
438000  ekin = 1.95545357706131 |  erot = 1.30011080733305 | epot = -11.3893480508747 | etot = -8.13378366648031
439000  ekin = 1.98811153075414 |  erot = 1.25557284833504 | epot = -11.3774680457354 | etot = -8.13378366664626
440000  ekin = 2.0098662343583 |  erot = 1.21630204160787 | epot = -11.3599519429613 | etot = -8.13378366699512
441000  ekin = 2.01530350765608 |  erot = 1.18202297032624 | epot = -11.3311101452705 | etot = -8.13378366728816
442000  ekin = 1.99936349678836 |  erot = 1.15207873138057 | epot = -11.2852258960231 | etot = -8.13378366785417
443000  ekin = 1.95696749681548 |  erot = 1.12547607063948 | epot = -11.2162272349835 | etot = -8.13378366752858
444000  ekin = 1.89166490098949 |  erot = 1.1019446144793 | epot = -11.1273931823292 | etot = -8.13378366686041
445000  ekin = 1.81328868644808 |  erot = 1.08168732032593 | epot = -11.0287596725681 | etot = -8.13378366579407
446000  ekin = 1.73577899474801 |  erot = 1.0650507149292 | epot = -10.9346133747235 | etot = -8.13378366504631
447000  ekin = 1.67093185588903 |  erot = 1.05239705127024 | epot = -10.8571125714712 | etot = -8.13378366431193
448000  ekin = 1.6291185681957 |  erot = 1.04409603312752 | epot = -10.8069982651705 | etot = -8.13378366384727
449000  ekin = 1.61731626296989 |  erot = 1.04041489697271 | epot = -10.791514823704 | etot = -8.13378366376141
450000  ekin = 1.63711697605571 |  erot = 1.04135992229776 | epot = -10.8122605626985 | etot = -8.13378366434506
451000  ekin = 1.68320258142038 |  erot = 1.04620824656658 | epot = -10.8631944930206 | etot = -8.1337836650336
452000  ekin = 1.74581668011655 |  erot = 1.05391169410258 | epot = -10.9335120399987 | etot = -8.13378366577956
453000  ekin = 1.81457146100623 |  erot = 1.0633516586361 | epot = -11.0117067861211 | etot = -8.13378366647876
454000  ekin = 1.87975957938708 |  erot = 1.07317402238692 | epot = -11.0867172689099 | etot = -8.1337836671359
455000  ekin = 1.93251877588356 |  erot = 1.08171623325679 | epot = -11.1480186769506 | etot = -8.13378366781027
456000  ekin = 1.96415416827424 |  erot = 1.08704156959015 | epot = -11.1849794063656 | etot = -8.13378366850123
457000  ekin = 1.96605348077828 |  erot = 1.08723394294392 | epot = -11.187071092793 | etot = -8.13378366907079
458000  ekin = 1.9312752376162 |  erot = 1.08096076790612 | epot = -11.1460196747861 | etot = -8.13378366926378
459000  ekin = 1.85771594839656 |  erot = 1.06809531780904 | epot = -11.0595949350306 | etot = -8.13378366882499
460000  ekin = 1.75147188083702 |  erot = 1.05009293158524 | epot = -10.9353484800678 | etot = -8.13378366764555
461000  ekin = 1.6283414273361 |  erot = 1.029908113266 | epot = -10.7920332065044 | etot = -8.13378366590227
462000  ekin = 1.5119536064741 |  erot = 1.01153881174558 | epot = -10.6572760811962 | etot = -8.13378366297649
463000  ekin = 1.43011910143288 |  erot = 1.00022578453913 | epot = -10.5641285481471 | etot = -8.13378366217513
464000  ekin = 1.39582910827046 |  erot = 0.998198432078284 | epot = -10.5278112021995 | etot = -8.13378366185077
465000  ekin = 1.41007554849935 |  erot = 1.00592009003323 | epot = -10.549779301236 | etot = -8.13378366270344
466000  ekin = 1.46251969360658 |  erot = 1.02219738030626 | epot = -10.6185007378639 | etot = -8.13378366395105
467000  ekin = 1.49627186619118 |  erot = 1.05472101824888 | epot = -10.6847765487636 | etot = -8.13378366432351
468000  ekin = 1.51725853676885 |  erot = 1.12479885667032 | epot = -10.7758410579751 | etot = -8.13378366453589
469000  ekin = 1.58140637754176 |  erot = 1.16828828958055 | epot = -10.8834783316042 | etot = -8.13378366448191
470000  ekin = 1.60068578297467 |  erot = 1.18114141020405 | epot = -10.9156108575284 | etot = -8.13378366434973
471000  ekin = 1.59076368324762 |  erot = 1.18707237246302 | epot = -10.9116197194113 | etot = -8.13378366370063
472000  ekin = 1.56124060597792 |  erot = 1.18572143100499 | epot = -10.8807456997763 | etot = -8.13378366279336
473000  ekin = 1.52502097409219 |  erot = 1.17792025680466 | epot = -10.8367248927322 | etot = -8.13378366183534
474000  ekin = 1.49533177223736 |  erot = 1.1654444621287 | epot = -10.7945598953215 | etot = -8.13378366095542
475000  ekin = 1.48386630174166 |  erot = 1.15068540214929 | epot = -10.7683353641294 | etot = -8.13378366023847
476000  ekin = 1.49971334631522 |  erot = 1.13623821677362 | epot = -10.7697352228325 | etot = -8.13378365974366
477000  ekin = 1.54871118768947 |  erot = 1.12448433352164 | epot = -10.8069791813229 | etot = -8.13378366011174
478000  ekin = 1.62953491120552 |  erot = 1.11764268902992 | epot = -10.8809612604753 | etot = -8.13378366023985
479000  ekin = 1.73735741644758 |  erot = 1.1170062081069 | epot = -10.9881472852207 | etot = -8.13378366066624
480000  ekin = 1.86556210289515 |  erot = 1.12262064774494 | epot = -11.1219664120727 | etot = -8.13378366143264
481000  ekin = 2.0012102633685 |  erot = 1.13364860020824 | epot = -11.2686425499427 | etot = -8.13378368636594
482000  ekin = 2.04617329754027 |  erot = 1.16256926171994 | epot = -11.3425262237474 | etot = -8.13378366448715
483000  ekin = 2.14335261837912 |  erot = 1.21476273131878 | epot = -11.4918990326069 | etot = -8.13378368290902
484000  ekin = 2.20270995355802 |  erot = 1.23147381806272 | epot = -11.5679674446393 | etot = -8.13378367301852
485000  ekin = 2.20682939440519 |  erot = 1.23835798981442 | epot = -11.5789710574718 | etot = -8.13378367325215
486000  ekin = 2.16589682793734 |  erot = 1.24300370551225 | epot = -11.5426842062782 | etot = -8.13378367282857
487000  ekin = 2.08668888864345 |  erot = 1.2462555175155 | epot = -11.4667280780054 | etot = -8.13378367184647
488000  ekin = 1.98386509124372 |  erot = 1.24977318046121 | epot = -11.3674219422281 | etot = -8.13378367052322
489000  ekin = 1.87707931029984 |  erot = 1.2554701277326 | epot = -11.2663331071929 | etot = -8.13378366916048
490000  ekin = 1.78677596316312 |  erot = 1.26490338721642 | epot = -11.1854630185062 | etot = -8.13378366812671
491000  ekin = 1.72903831213431 |  erot = 1.27867004037895 | epot = -11.1414920203123 | etot = -8.133783667799
492000  ekin = 1.71039979057245 |  erot = 1.29591768107149 | epot = -11.1401011400638 | etot = -8.13378366841982
493000  ekin = 1.72454317155753 |  erot = 1.31423280426796 | epot = -11.1725596457295 | etot = -8.13378366990401
494000  ekin = 1.75332785015354 |  erot = 1.33022406246872 | epot = -11.2173355843447 | etot = -8.13378367172244
495000  ekin = 1.7734956582584 |  erot = 1.34086561473594 | epot = -11.2481449460322 | etot = -8.13378367303788
496000  ekin = 1.76725059668372 |  erot = 1.34512484287188 | epot = -11.2461591127068 | etot = -8.13378367315117
497000  ekin = 1.73127637990442 |  erot = 1.34494708212826 | epot = -11.2100071339952 | etot = -8.13378367196252
498000  ekin = 1.67855000909469 |  erot = 1.34489121265175 | epot = -11.1572248917831 | etot = -8.13378367003671
499000  ekin = 1.63191747121039 |  erot = 1.35056727533944 | epot = -11.1162684147637 | etot = -8.13378366821391
500000  ekin = 1.61378359991117 |  erot = 1.3667636468208 | epot = -11.1143309138832 | etot = -8.13378366715125
501000  ekin = 1.63758101988749 |  erot = 1.39609850677113 | epot = -11.1674631937605 | etot = -8.13378366710186
502000  ekin = 1.70413807541035 |  erot = 1.43847493669456 | epot = -11.2763966800726 | etot = -8.13378366796771
503000  ekin = 1.80268297746472 |  erot = 1.49115460253838 | epot = -11.4276212494951 | etot = -8.13378366949196
504000  ekin = 1.9141954977722 |  erot = 1.54914693963821 | epot = -11.5971261088377 | etot = -8.13378367142726
505000  ekin = 2.01490443995697 |  erot = 1.60576406504009 | epot = -11.7544521785376 | etot = -8.13378367354053
506000  ekin = 2.07966541468386 |  erot = 1.6534543935365 | epot = -11.8669034836599 | etot = -8.13378367543953
507000  ekin = 2.08700353894481 |  erot = 1.68517460629044 | epot = -11.9059618217135 | etot = -8.13378367647822
508000  ekin = 2.02663352661065 |  erot = 1.69625747623234 | epot = -11.8566746789116 | etot = -8.13378367606862
509000  ekin = 1.90589064132138 |  erot = 1.68599529702386 | epot = -11.7256696125322 | etot = -8.13378367418698
510000  ekin = 1.74959091230806 |  erot = 1.65787688253089 | epot = -11.5412514663048 | etot = -8.13378367146589
511000  ekin = 1.59231955657683 |  erot = 1.61826266731484 | epot = -11.344365892668 | etot = -8.13378366877636
512000  ekin = 1.46755856059499 |  erot = 1.574346623804 | epot = -11.1756888512805 | etot = -8.13378366688155
513000  ekin = 1.39839916092431 |  erot = 1.53234768377712 | epot = -11.0645305108107 | etot = -8.1337836661093
514000  ekin = 1.39338903685856 |  erot = 1.49706258344644 | epot = -11.0242352864604 | etot = -8.13378366615535
515000  ekin = 1.4449515906114 |  erot = 1.47110271003163 | epot = -11.0498379682043 | etot = -8.13378366756124
516000  ekin = 1.53288312820405 |  erot = 1.45357064724662 | epot = -11.120237444837 | etot = -8.13378366938634
517000  ekin = 1.63159033311016 |  erot = 1.4422429447308 | epot = -11.2076169492191 | etot = -8.13378367137813
518000  ekin = 1.71409401453986 |  erot = 1.43408399436084 | epot = -11.2819616821386 | etot = -8.13378367323793
519000  ekin = 1.75665192754695 |  erot = 1.42579002917154 | epot = -11.3162256317157 | etot = -8.13378367499717
520000  ekin = 1.74187345945589 |  erot = 1.41504839775203 | epot = -11.2907055324128 | etot = -8.13378367520484
521000  ekin = 1.66871703038557 |  erot = 1.40071550596171 | epot = -11.2032162100964 | etot = -8.13378367374909
522000  ekin = 1.55952182854209 |  erot = 1.38339983650497 | epot = -11.0767053361864 | etot = -8.13378367113936
523000  ekin = 1.45114556549815 |  erot = 1.36568308065423 | epot = -10.9506123146093 | etot = -8.13378366845691
524000  ekin = 1.38091842211172 |  erot = 1.35134919391535 | epot = -10.8660512824725 | etot = -8.13378366644542
525000  ekin = 1.37601425589819 |  erot = 1.34456662956728 | epot = -10.8543645508754 | etot = -8.13378366540995
526000  ekin = 1.44870428483462 |  erot = 1.34909740180183 | epot = -10.9315853521469 | etot = -8.13378366551048
527000  ekin = 1.59459863545429 |  erot = 1.36714947553062 | epot = -11.0955317778984 | etot = -8.13378366691349
528000  ekin = 1.79183405480072 |  erot = 1.39841904594406 | epot = -11.3240367701629 | etot = -8.13378366941811
529000  ekin = 2.0047897869589 |  erot = 1.43972835788938 | epot = -11.5783018172186 | etot = -8.13378367237028
530000  ekin = 2.19333795599517 |  erot = 1.48552207659284 | epot = -11.8126437074765 | etot = -8.13378367488846
531000  ekin = 2.3243147696347 |  erot = 1.52928747156971 | epot = -11.9873859174932 | etot = -8.13378367628878
532000  ekin = 2.37971447236191 |  erot = 1.56539257219405 | epot = -12.07889072101 | etot = -8.13378367645406
533000  ekin = 2.35771666713913 |  erot = 1.59048999441851 | epot = -12.0819903372207 | etot = -8.13378367566308
534000  ekin = 2.26899715447801 |  erot = 1.60407394360657 | epot = -12.0068547722163 | etot = -8.13378367413176
535000  ekin = 2.13365177459236 |  erot = 1.6083107246381 | epot = -11.8757461712525 | etot = -8.13378367202203
536000  ekin = 1.97886376167689 |  erot = 1.60719127869317 | epot = -11.7198387100982 | etot = -8.13378366972817
537000  ekin = 1.83421887316062 |  erot = 1.60523898303573 | epot = -11.57324152396 | etot = -8.13378366776365
538000  ekin = 1.72531720894425 |  erot = 1.60632519291469 | epot = -11.4654260683693 | etot = -8.13378366651034
539000  ekin = 1.66856519907927 |  erot = 1.61301472932421 | epot = -11.4153635945258 | etot = -8.1337836661223
540000  ekin = 1.66907056570542 |  erot = 1.62662968767033 | epot = -11.4294839195369 | etot = -8.13378366616114
541000  ekin = 1.72153495929898 |  erot = 1.64788745987897 | epot = -11.5032060865253 | etot = -8.13378366734729
542000  ekin = 1.80903650499713 |  erot = 1.6754786968165 | epot = -11.6182988707247 | etot = -8.13378366891106
543000  ekin = 1.90894616838299 |  erot = 1.70734508949094 | epot = -11.7500749284074 | etot = -8.13378367053344
544000  ekin = 1.99777842842083 |  erot = 1.74125357781933 | epot = -11.872815678158 | etot = -8.1337836719178
545000  ekin = 2.05546409376793 |  erot = 1.77521000037305 | epot = -11.9644577669743 | etot = -8.13378367283331
546000  ekin = 2.06867595315476 |  erot = 1.80779483609698 | epot = -12.0102544624065 | etot = -8.13378367315476
547000  ekin = 2.03267806246824 |  erot = 1.83838588998535 | epot = -12.0048476253198 | etot = -8.13378367286618
548000  ekin = 1.9514873142168 |  erot = 1.86718390882753 | epot = -11.9524548951458 | etot = -8.13378367210146
549000  ekin = 1.83645042329681 |  erot = 1.8948745651991 | epot = -11.865108659531 | etot = -8.1337836710351
550000  ekin = 1.70373130494124 |  erot = 1.92233248820399 | epot = -11.7598474630203 | etot = -8.13378366987511
551000  ekin = 1.57139422779004 |  erot = 1.95024291867626 | epot = -11.6554208152757 | etot = -8.13378366880941
552000  ekin = 1.45663332554897 |  erot = 1.97878558862289 | epot = -11.5692025821636 | etot = -8.13378366799177
553000  ekin = 1.37337409016437 |  erot = 2.00744335364932 | epot = -11.514601111358 | etot = -8.13378366754427
554000  ekin = 1.33029485859215 |  erot = 2.03496657144576 | epot = -11.4990450975799 | etot = -8.13378366754198
555000  ekin = 1.3294535962293 |  erot = 2.05953157375401 | epot = -11.5227688379784 | etot = -8.13378366799514
556000  ekin = 1.36589068755205 |  erot = 2.07909837608786 | epot = -11.5787727324488 | etot = -8.13378366880886
557000  ekin = 1.42857577082881 |  erot = 2.09193210846587 | epot = -11.6542915490942 | etot = -8.1337836697995
558000  ekin = 1.50275359964078 |  erot = 2.09715314139877 | epot = -11.7336904117688 | etot = -8.13378367072928
559000  ekin = 1.57321830908445 |  erot = 2.09511862189357 | epot = -11.8021206023714 | etot = -8.13378367139341
560000  ekin = 1.6274017236502 |  erot = 2.08745496893238 | epot = -11.8486403643081 | etot = -8.13378367172548
561000  ekin = 1.65692416189953 |  erot = 2.07666092047448 | epot = -11.8673687541794 | etot = -8.13378367180544
562000  ekin = 1.65737426357895 |  erot = 2.06544534214402 | epot = -11.8566032774536 | etot = -8.13378367173059
563000  ekin = 1.62727808429883 |  erot = 2.05615555037994 | epot = -11.8172173064641 | etot = -8.13378367178533
564000  ekin = 1.56679933058189 |  erot = 2.05047511799425 | epot = -11.7510581199266 | etot = -8.13378367135049
565000  ekin = 1.48206055330982 |  erot = 2.04917576858436 | epot = -11.6650199925389 | etot = -8.13378367064472
566000  ekin = 1.38423866545702 |  erot = 2.0522185015012 | epot = -11.5702408367397 | etot = -8.13378366978152
567000  ekin = 1.28749391779691 |  erot = 2.05873429505229 | epot = -11.4800118818332 | etot = -8.13378366898396
568000  ekin = 1.20570431101599 |  erot = 2.06705692033801 | epot = -11.4065448998091 | etot = -8.13378366845512
569000  ekin = 1.14918558020156 |  erot = 2.07495244465927 | epot = -11.3579216931482 | etot = -8.13378366828739
570000  ekin = 1.1227644964211 |  erot = 2.08007272962191 | epot = -11.3366208944862 | etot = -8.1337836684432
571000  ekin = 1.12567595867314 |  erot = 2.08050218013558 | epot = -11.3399618076074 | etot = -8.13378366879866
572000  ekin = 1.15294903405766 |  erot = 2.07519259345008 | epot = -11.3619252967078 | etot = -8.13378366920009
573000  ekin = 1.19838854914171 |  erot = 2.06451015558542 | epot = -11.3966823739534 | etot = -8.13378366922627
574000  ekin = 1.25460427385149 |  erot = 2.04968889738643 | epot = -11.4380768407625 | etot = -8.13378366952455
575000  ekin = 1.31454735692178 |  erot = 2.03199549862809 | epot = -11.4803265250809 | etot = -8.13378366953105
576000  ekin = 1.37512583608935 |  erot = 2.01319845741268 | epot = -11.5221079628055 | etot = -8.13378366930347
577000  ekin = 1.4368276050156 |  erot = 1.99528982934782 | epot = -11.5659011033267 | etot = -8.13378366896326
578000  ekin = 1.50235588201013 |  erot = 1.98017269182884 | epot = -11.6163122424631 | etot = -8.13378366862409
579000  ekin = 1.57520818416554 |  erot = 1.96938672247367 | epot = -11.6783785749969 | etot = -8.13378366835764
580000  ekin = 1.65868462493235 |  erot = 1.9639024985762 | epot = -11.7563707921473 | etot = -8.13378366863878
581000  ekin = 1.75247311827178 |  erot = 1.96419308534812 | epot = -11.8504498724826 | etot = -8.1337836688627
582000  ekin = 1.85283782858555 |  erot = 1.96967477641653 | epot = -11.9562962743794 | etot = -8.13378366937735
583000  ekin = 1.95429754598428 |  erot = 1.97826405495497 | epot = -12.066345271263 | etot = -8.13378367032373
584000  ekin = 2.04662916573151 |  erot = 1.98631443704361 | epot = -12.166727274545 | etot = -8.13378367176989
585000  ekin = 2.11419694672366 |  erot = 1.98862566442183 | epot = -12.2366062846833 | etot = -8.13378367353783
586000  ekin = 2.13871236988801 |  erot = 1.97915340581231 | epot = -12.2516494507807 | etot = -8.13378367508039
587000  ekin = 2.10465783247845 |  erot = 1.95256271522722 | epot = -12.1910042235957 | etot = -8.13378367589006
588000  ekin = 2.00543191748709 |  erot = 1.9059998827695 | epot = -12.0452154755336 | etot = -8.13378367527704
589000  ekin = 1.85115446103406 |  erot = 1.84021509335329 | epot = -11.8251532276634 | etot = -8.13378367327609
590000  ekin = 1.66921622807239 |  erot = 1.75933351103025 | epot = -11.5623334094939 | etot = -8.13378367039126
591000  ekin = 1.49774854837712 |  erot = 1.66961531491613 | epot = -11.30114753078 | etot = -8.13378366748679
592000  ekin = 1.37418208600444 |  erot = 1.57786762198285 | epot = -11.0858333735062 | etot = -8.13378366551893
593000  ekin = 1.32230765434558 |  erot = 1.49017042366308 | epot = -10.946261743085 | etot = -8.13378366507638
594000  ekin = 1.34433584582349 |  erot = 1.4111028903579 | epot = -10.889222402216 | etot = -8.13378366603464
595000  ekin = 1.42313762142318 |  erot = 1.34352894993872 | epot = -10.9004502389437 | etot = -8.13378366758178
596000  ekin = 1.53140640357795 |  erot = 1.28905714162401 | epot = -10.9542472149252 | etot = -8.13378366972318
597000  ekin = 1.63793776665358 |  erot = 1.24822708397797 | epot = -11.019948521771 | etot = -8.13378367113945
598000  ekin = 1.71853369497171 |  erot = 1.22042305584093 | epot = -11.0727404229619 | etot = -8.1337836721493
599000  ekin = 1.75676579672012 |  erot = 1.20417119498014 | epot = -11.094720664434 | etot = -8.13378367273374
600000  ekin = 1.74415562350694 |  erot = 1.19748501257627 | epot = -11.0754243088965 | etot = -8.13378367281325
601000  ekin = 1.68078686627232 |  erot = 1.19842786467589 | epot = -11.0129984032333 | etot = -8.13378367228509
602000  ekin = 1.5759276846403 |  erot = 1.2057183598342 | epot = -10.9154297156131 | etot = -8.13378367113859
603000  ekin = 1.44736021987686 |  erot = 1.21906556666014 | epot = -10.8002094561061 | etot = -8.13378366956908
604000  ekin = 1.31829530123556 |  erot = 1.23900632720525 | epot = -10.6910852964235 | etot = -8.1337836679827
605000  ekin = 1.21203583247122 |  erot = 1.26625018196129 | epot = -10.6120696811927 | etot = -8.13378366676019
606000  ekin = 1.14717881943827 |  erot = 1.30114918573651 | epot = -10.5821116711564 | etot = -8.13378366598166
607000  ekin = 1.13493137970374 |  erot = 1.34344256501632 | epot = -10.6121576106303 | etot = -8.13378366591028
608000  ekin = 1.17769398075509 |  erot = 1.39211398656144 | epot = -10.7035916336204 | etot = -8.13378366630391
609000  ekin = 1.27083042497929 |  erot = 1.44572829443448 | epot = -10.8503423864933 | etot = -8.13378366707956
610000  ekin = 1.40359308953948 |  erot = 1.50241692808649 | epot = -11.0397936861351 | etot = -8.13378366850912
611000  ekin = 1.55996607947321 |  erot = 1.55982171140076 | epot = -11.2535714606409 | etot = -8.13378366976697
612000  ekin = 1.72323074885895 |  erot = 1.61567444068663 | epot = -11.4726888606384 | etot = -8.13378367109282
613000  ekin = 1.87623356286674 |  erot = 1.66732234624859 | epot = -11.6773395815057 | etot = -8.13378367239041
614000  ekin = 2.00332542688151 |  erot = 1.71185786771434 | epot = -11.848966967915 | etot = -8.13378367331919
615000  ekin = 2.09384471069807 |  erot = 1.74706892486403 | epot = -11.9746973091585 | etot = -8.13378367359637
616000  ekin = 2.14582652013027 |  erot = 1.77208418551299 | epot = -12.0516943786627 | etot = -8.13378367301943
617000  ekin = 2.16764032552913 |  erot = 1.78786476155115 | epot = -12.0892887588803 | etot = -8.13378367180001
618000  ekin = 2.17543321837043 |  erot = 1.79702594194308 | epot = -12.1062428306655 | etot = -8.13378367035196
619000  ekin = 2.18765015125251 |  erot = 1.8030963157565 | epot = -12.1245301362301 | etot = -8.13378366922112
620000  ekin = 2.21827388575589 |  erot = 1.8094157960994 | epot = -12.1614733506145 | etot = -8.13378366875921
621000  ekin = 2.27256724285261 |  erot = 1.8181790610491 | epot = -12.2245299729331 | etot = -8.13378366903137
622000  ekin = 2.34686215367292 |  erot = 1.82980019932759 | epot = -12.3104460228874 | etot = -8.13378366988686
623000  ekin = 2.43079483960191 |  erot = 1.84272954677892 | epot = -12.407308057477 | etot = -8.13378367109613
624000  ekin = 2.51074859397691 |  erot = 1.85365912853682 | epot = -12.4981913948554 | etot = -8.1337836723417
625000  ekin = 2.57376014757444 |  erot = 1.85839628628517 | epot = -12.5659401070505 | etot = -8.13378367319088
626000  ekin = 2.61178608744248 |  erot = 1.85335246049345 | epot = -12.5989222212665 | etot = -8.13378367333057
627000  ekin = 2.62439666916151 |  erot = 1.836759298599 | epot = -12.5949396405996 | etot = -8.13378367283914
628000  ekin = 2.6171514311727 |  erot = 1.80883297814721 | epot = -12.5597680815394 | etot = -8.13378367221952
629000  ekin = 2.59614002780789 |  erot = 1.77076928022222 | epot = -12.5006929799658 | etot = -8.13378367193565
630000  ekin = 2.56316564609421 |  erot = 1.72368862272978 | epot = -12.4206379408666 | etot = -8.13378367204264
631000  ekin = 2.51545670840913 |  erot = 1.66841938705456 | epot = -12.3176597677119 | etot = -8.13378367224824
632000  ekin = 2.44898106285169 |  erot = 1.60594586086322 | epot = -12.1887105959657 | etot = -8.13378367225076
633000  ekin = 2.3628725779896 |  erot = 1.537824267386 | epot = -12.0344805167315 | etot = -8.13378367135589
634000  ekin = 2.26405242525385 |  erot = 1.46623278031329 | epot = -11.86406887615 | etot = -8.13378367058286
635000  ekin = 2.16101755721666 |  erot = 1.39475566088792 | epot = -11.6895568878141 | etot = -8.13378366970949
636000  ekin = 2.06475253332685 |  erot = 1.32686506234718 | epot = -11.5254012642678 | etot = -8.13378366859376
637000  ekin = 1.98973271037504 |  erot = 1.26596624429437 | epot = -11.3894826221253 | etot = -8.1337836674559
638000  ekin = 1.95146778322637 |  erot = 1.21514985243856 | epot = -11.300401302297 | etot = -8.13378366663209
639000  ekin = 1.96182069136022 |  erot = 1.17695161175825 | epot = -11.272555969302 | etot = -8.13378366618352
640000  ekin = 2.02679898932425 |  erot = 1.15239183902553 | epot = -11.3129744949237 | etot = -8.13378366657393
641000  ekin = 2.14199910312204 |  erot = 1.14071086555856 | epot = -11.4164936363262 | etot = -8.13378366764563
642000  ekin = 2.29285046318387 |  erot = 1.13915186810681 | epot = -11.5657860007474 | etot = -8.13378366945667
643000  ekin = 2.4555255211293 |  erot = 1.14338828232392 | epot = -11.7326974750667 | etot = -8.13378367161347
644000  ekin = 2.60133752584175 |  erot = 1.14835367489888 | epot = -11.8834748743289 | etot = -8.13378367358823
645000  ekin = 2.70371430393602 |  erot = 1.14938437136117 | epot = -11.9868823501743 | etot = -8.13378367487716
646000  ekin = 2.74463607559621 |  erot = 1.14332224209727 | epot = -12.0217419929066 | etot = -8.13378367521314
647000  ekin = 2.71817787237564 |  erot = 1.12915792947168 | epot = -11.9811194764793 | etot = -8.13378367463198
648000  ekin = 2.63028246066394 |  erot = 1.1079861362648 | epot = -11.8720522703218 | etot = -8.13378367339308
649000  ekin = 2.49559189347758 |  erot = 1.08245328245263 | epot = -11.7118288477932 | etot = -8.13378367186295
650000  ekin = 2.33293161554906 |  erot = 1.05592857136061 | epot = -11.5226438572789 | etot = -8.13378367036921
651000  ekin = 2.16312160403649 |  erot = 1.03179243269276 | epot = -11.3286977053777 | etot = -8.1337836686484
652000  ekin = 2.00437764472218 |  erot = 1.01263346476062 | epot = -11.1507947776125 | etot = -8.13378366812973
653000  ekin = 1.86320148187784 |  erot = 0.99977129867497 | epot = -10.9967564485088 | etot = -8.13378366795595
654000  ekin = 1.74159938814796 |  erot = 0.993638993406512 | epot = -10.8690220495721 | etot = -8.13378366801762
655000  ekin = 1.63877614369479 |  erot = 0.993961110615602 | epot = -10.7665209224946 | etot = -8.1337836681842
656000  ekin = 1.55293696394008 |  erot = 0.999977751479529 | epot = -10.6866983837463 | etot = -8.13378366832672
657000  ekin = 1.48301105565508 |  erot = 1.01069155839127 | epot = -10.6274862823929 | etot = -8.13378366834651
[...]
838000  ekin = 1.4162337647315 |  erot = 1.68359587924133 | epot = -11.2336133182264 | etot = -8.13378367425356
839000  ekin = 1.38164226026344 |  erot = 1.69827238731553 | epot = -11.213698322192 | etot = -8.13378367461306
840000  ekin = 1.37281419732093 |  erot = 1.71791872247322 | epot = -11.2245165948951 | etot = -8.13378367510095
841000  ekin = 1.38251849217974 |  erot = 1.74222357843345 | epot = -11.2585257462031 | etot = -8.13378367558988
842000  ekin = 1.4044081597883 |  erot = 1.77053653197148 | epot = -11.3087283678064 | etot = -8.13378367604664
843000  ekin = 1.43288889980199 |  erot = 1.80208713645094 | epot = -11.3687597127339 | etot = -8.13378367648095
844000  ekin = 1.46337505889616 |  erot = 1.83581425251912 | epot = -11.4329729883389 | etot = -8.13378367692365
845000  ekin = 1.49225139056966 |  erot = 1.87011931175411 | epot = -11.4961543797204 | etot = -8.13378367739667
846000  ekin = 1.51675477569197 |  erot = 1.90271354953138 | epot = -11.5532520030944 | etot = -8.13378367787109
847000  ekin = 1.53514567678596 |  erot = 1.93076451200869 | epot = -11.5996938670159 | etot = -8.13378367822125
848000  ekin = 1.5475881723199 |  erot = 1.95149729794252 | epot = -11.6328691485158 | etot = -8.13378367825334
849000  ekin = 1.5574027537284 |  erot = 1.96313933263521 | epot = -11.6543257642199 | etot = -8.13378367785626
850000  ekin = 1.57132389446806 |  erot = 1.96572299067513 | epot = -11.6708305623251 | etot = -8.13378367718195
851000  ekin = 1.59707563437872 |  erot = 1.96110149860219 | epot = -11.6919608096193 | etot = -8.13378367663836
852000  ekin = 1.63865350765299 |  erot = 1.95197424566189 | epot = -11.7244114299871 | etot = -8.13378367667226
853000  ekin = 1.69191652739573 |  erot = 1.94037118752086 | epot = -11.7660713923853 | etot = -8.13378367746866
854000  ekin = 1.7437078406578 |  erot = 1.92645693830632 | epot = -11.8039484576719 | etot = -8.13378367870781
855000  ekin = 1.77620146878764 |  erot = 1.90847432025717 | epot = -11.8184594689948 | etot = -8.13378367994998
856000  ekin = 1.77433273139423 |  erot = 1.88315817995336 | epot = -11.7912745918488 | etot = -8.13378368050118
857000  ekin = 1.73346273134441 |  erot = 1.84735528718682 | epot = -11.7146016985287 | etot = -8.13378367999751
858000  ekin = 1.66317903335044 |  erot = 1.79946643676052 | epot = -11.5964291486449 | etot = -8.13378367853393
859000  ekin = 1.58513293518405 |  erot = 1.74007953857259 | epot = -11.4589961503737 | etot = -8.13378367661708
860000  ekin = 1.52581941801666 |  erot = 1.67168470756785 | epot = -11.3312878004857 | etot = -8.13378367490119
861000  ekin = 1.50775028749465 |  erot = 1.59782760924472 | epot = -11.2393615706045 | etot = -8.13378367386511
862000  ekin = 1.54306866395468 |  erot = 1.5222595442197 | epot = -11.1991118818204 | etot = -8.13378367364598
863000  ekin = 1.63171594700426 |  erot = 1.44845127739652 | epot = -11.213950898487 | etot = -8.13378367408626
864000  ekin = 1.76367870791012 |  erot = 1.37946094066105 | epot = -11.2769233234828 | etot = -8.13378367491163
865000  ekin = 1.92306453061742 |  erot = 1.31796433764096 | epot = -11.3748125441268 | etot = -8.13378367586843
866000  ekin = 2.09215456466933 |  erot = 1.26628926032545 | epot = -11.4922275015544 | etot = -8.13378367655963
867000  ekin = 2.25558706733142 |  erot = 1.22649711168696 | epot = -11.6158678563116 | etot = -8.13378367729318
868000  ekin = 2.40057443681419 |  erot = 1.20017706561785 | epot = -11.7345351802278 | etot = -8.13378367779579
869000  ekin = 2.51819395309998 |  erot = 1.18842551947395 | epot = -11.8404031506462 | etot = -8.13378367807223
870000  ekin = 2.60380767712916 |  erot = 1.1917859568067 | epot = -11.9293773121543 | etot = -8.13378367821845
871000  ekin = 2.6559733061111 |  erot = 1.21008900142682 | epot = -11.9998459858619 | etot = -8.133783678324
872000  ekin = 2.67413391848391 |  erot = 1.24223617431067 | epot = -12.0501537715254 | etot = -8.13378367873086
873000  ekin = 2.65523813382388 |  erot = 1.28590823732333 | epot = -12.0749300505087 | etot = -8.13378367936148
874000  ekin = 2.59426343774983 |  erot = 1.33769628161563 | epot = -12.06574339939 | etot = -8.13378368002454
875000  ekin = 2.48661885025695 |  erot = 1.39359938745119 | epot = -12.0140019180671 | etot = -8.13378368035895
876000  ekin = 2.33257163421753 |  erot = 1.44985984502701 | epot = -11.9162151592403 | etot = -8.13378367999579
877000  ekin = 2.1415173169262 |  erot = 1.50380376798737 | epot = -11.779104763739 | etot = -8.13378367882541
878000  ekin = 1.93283200457902 |  erot = 1.55419737716141 | epot = -11.6208130589263 | etot = -8.13378367718589
879000  ekin = 1.73117573714329 |  erot = 1.60084517509846 | epot = -11.4658045879874 | etot = -8.1337836757456
880000  ekin = 1.55787151416927 |  erot = 1.64373016606455 | epot = -11.3353853552858 | etot = -8.13378367505203
881000  ekin = 1.42384142253983 |  erot = 1.68244604668588 | epot = -11.2400711443547 | etot = -8.13378367512898
882000  ekin = 1.32893688604086 |  erot = 1.71640874286046 | epot = -11.1791293044552 | etot = -8.13378367555386
883000  ekin = 1.26714280225757 |  erot = 1.74554143034235 | epot = -11.1464679083281 | etot = -8.13378367572822
884000  ekin = 1.23268823963092 |  erot = 1.7707175839411 | epot = -11.1371894995195 | etot = -8.13378367594748
885000  ekin = 1.22008849602965 |  erot = 1.79312166827945 | epot = -11.146993840416 | etot = -8.13378367610686
886000  ekin = 1.22532479935907 |  erot = 1.81382116036275 | epot = -11.1729296359618 | etot = -8.13378367624002
887000  ekin = 1.24494548123391 |  erot = 1.83336039630347 | epot = -11.2120895540015 | etot = -8.13378367646412
888000  ekin = 1.27500212895509 |  erot = 1.85168867104653 | epot = -11.2604744767523 | etot = -8.13378367675066
889000  ekin = 1.31152735233508 |  erot = 1.86844690132863 | epot = -11.3137579307676 | etot = -8.13378367710384
890000  ekin = 1.34986317557792 |  erot = 1.88304641061887 | epot = -11.3666932637217 | etot = -8.13378367752486
891000  ekin = 1.3839053046692 |  erot = 1.89468392916033 | epot = -11.4123729119156 | etot = -8.13378367808608
892000  ekin = 1.4056939601361 |  erot = 1.90226748653136 | epot = -11.4417451256778 | etot = -8.13378367901037
893000  ekin = 1.4044828898523 |  erot = 1.90432470777546 | epot = -11.4425912773306 | etot = -8.13378367970285
894000  ekin = 1.37144289400729 |  erot = 1.89954369047165 | epot = -11.4047702644674 | etot = -8.1337836799885
895000  ekin = 1.30348485926605 |  erot = 1.88750422979465 | epot = -11.3247727652357 | etot = -8.13378367617496
896000  ekin = 1.22187337025272 |  erot = 1.87071061666189 | epot = -11.2263676624273 | etot = -8.13378367551266
897000  ekin = 1.14754845821631 |  erot = 1.85263803834259 | epot = -11.1339701710627 | etot = -8.13378367450379
898000  ekin = 1.08944016692498 |  erot = 1.83653761322503 | epot = -11.0597614540714 | etot = -8.13378367392139
899000  ekin = 1.05403951208552 |  erot = 1.82413022621515 | epot = -11.0119534118899 | etot = -8.13378367358922
900000  ekin = 1.04500203395041 |  erot = 1.81619426310159 | epot = -10.9949799706508 | etot = -8.1337836735988
901000  ekin = 1.06222206976867 |  erot = 1.81234403076558 | epot = -11.0083497744581 | etot = -8.13378367392386
902000  ekin = 1.10209713967712 |  erot = 1.81111462888679 | epot = -11.0469954430142 | etot = -8.13378367445027
903000  ekin = 1.15876030929829 |  erot = 1.81037876553892 | epot = -11.1029227498644 | etot = -8.13378367502715
904000  ekin = 1.22532881874078 |  erot = 1.80797942302265 | epot = -11.1670919177285 | etot = -8.13378367596506
905000  ekin = 1.29206809096011 |  erot = 1.80250391189291 | epot = -11.2283556793155 | etot = -8.1337836764625
906000  ekin = 1.35183435800477 |  erot = 1.79300035916643 | epot = -11.2786183939258 | etot = -8.13378367675459
907000  ekin = 1.39979991788632 |  erot = 1.77946415977602 | epot = -11.3130477546212 | etot = -8.13378367695883
908000  ekin = 1.43268044731184 |  erot = 1.76253539568734 | epot = -11.3289995200077 | etot = -8.1337836770085
909000  ekin = 1.44897967271698 |  erot = 1.74341748052677 | epot = -11.3261808301276 | etot = -8.13378367688384
910000  ekin = 1.4493791234441 |  erot = 1.7239058043181 | epot = -11.3070686043171 | etot = -8.13378367655489
911000  ekin = 1.4372765381119 |  erot = 1.70617572404862 | epot = -11.2772359382084 | etot = -8.13378367604787
912000  ekin = 1.41843448413438 |  erot = 1.69263823245079 | epot = -11.2448563920297 | etot = -8.13378367544457
913000  ekin = 1.40006194283306 |  erot = 1.68549440988807 | epot = -11.2193400275861 | etot = -8.13378367486502
914000  ekin = 1.38958826281275 |  erot = 1.68634774656912 | epot = -11.2097196838529 | etot = -8.13378367447101
915000  ekin = 1.39244841650776 |  erot = 1.69595180432637 | epot = -11.222183895247 | etot = -8.13378367441291
916000  ekin = 1.41015014476277 |  erot = 1.71401831956856 | epot = -11.2579521390992 | etot = -8.13378367476784
917000  ekin = 1.43929629407875 |  erot = 1.73916763999658 | epot = -11.3122476095663 | etot = -8.13378367549097
918000  ekin = 1.47227942590957 |  erot = 1.7690307883689 | epot = -11.3750938906764 | etot = -8.13378367639796
919000  ekin = 1.49986621584627 |  erot = 1.80052098835293 | epot = -11.4341708813828 | etot = -8.1337836771836
920000  ekin = 1.51501276999424 |  erot = 1.83027923229297 | epot = -11.4790756798761 | etot = -8.13378367758893
921000  ekin = 1.50567012577189 |  erot = 1.85806253083181 | epot = -11.4975163334479 | etot = -8.13378367684417
922000  ekin = 1.50530570256305 |  erot = 1.88405749171412 | epot = -11.5231468708952 | etot = -8.13378367661807
923000  ekin = 1.5100507226794 |  erot = 1.89398296750367 | epot = -11.5378173660352 | etot = -8.13378367585208
924000  ekin = 1.52928061224625 |  erot = 1.8956177968463 | epot = -11.5586820845258 | etot = -8.13378367543328
925000  ekin = 1.56873673331191 |  erot = 1.88910082621295 | epot = -11.5916212352398 | etot = -8.13378367571493
926000  ekin = 1.62371911862189 |  erot = 1.87429650727768 | epot = -11.6317993025798 | etot = -8.13378367668023
927000  ekin = 1.67952368695127 |  erot = 1.85068760874446 | epot = -11.6639949736503 | etot = -8.13378367795453
928000  ekin = 1.7165123199499 |  erot = 1.81783745796285 | epot = -11.6681334569426 | etot = -8.1337836790298
929000  ekin = 1.71702543126893 |  erot = 1.77614095690577 | epot = -11.6269500676791 | etot = -8.13378367950444
930000  ekin = 1.67099557462226 |  erot = 1.72742889112057 | epot = -11.5322081449424 | etot = -8.13378367919953
931000  ekin = 1.57874462241223 |  erot = 1.67513458160389 | epot = -11.3876628821806 | etot = -8.13378367816449
932000  ekin = 1.45079208047385 |  erot = 1.62392798613312 | epot = -11.2085037432297 | etot = -8.13378367662272
933000  ekin = 1.30531755865534 |  erot = 1.57894109334334 | epot = -11.0180423268913 | etot = -8.13378367489265
934000  ekin = 1.16422088501479 |  erot = 1.5448580247485 | epot = -10.8428625830565 | etot = -8.13378367329315
935000  ekin = 1.04864497547427 |  erot = 1.52509208918658 | epot = -10.7075207368192 | etot = -8.13378367215837
936000  ekin = 0.974709278248285 |  erot = 1.52116327842719 | epot = -10.6296562283564 | etot = -8.13378367168093
937000  ekin = 0.950462282865957 |  erot = 1.53244919485051 | epot = -10.6166951496721 | etot = -8.13378367195565
938000  ekin = 0.974421294355898 |  erot = 1.55616007028612 | epot = -10.664365037581 | etot = -8.13378367293898
939000  ekin = 1.03606886851324 |  erot = 1.58755449581208 | epot = -10.7574070387767 | etot = -8.13378367445135
940000  ekin = 1.11826841057618 |  erot = 1.62042989061117 | epot = -10.8724819773802 | etot = -8.13378367619288
941000  ekin = 1.20122028628215 |  erot = 1.64794232122487 | epot = -10.9829462852902 | etot = -8.13378367778315
942000  ekin = 1.2671776373577 |  erot = 1.66371923912343 | epot = -11.0646805553612 | etot = -8.13378367888011
943000  ekin = 1.30509212491571 |  erot = 1.66314531270541 | epot = -11.102021116741 | etot = -8.13378367911992
944000  ekin = 1.31392377878815 |  erot = 1.64449670949665 | epot = -11.0922041667988 | etot = -8.13378367851405
945000  ekin = 1.30237464413517 |  erot = 1.60929976292202 | epot = -11.0454580844028 | etot = -8.13378367734559
946000  ekin = 1.28506402454556 |  erot = 1.56181036978137 | epot = -10.9806580704369 | etot = -8.13378367611001
947000  ekin = 1.27634123183433 |  erot = 1.50774431661115 | epot = -10.9178692237226 | etot = -8.13378367527709
948000  ekin = 1.28467886285544 |  erot = 1.45281196900575 | epot = -10.8712745069239 | etot = -8.1337836750627
949000  ekin = 1.31037739906317 |  erot = 1.40157240223147 | epot = -10.8457334766662 | etot = -8.13378367537153
950000  ekin = 1.34722619716981 |  erot = 1.35688689470856 | epot = -10.8378967678028 | etot = -8.13378367592443
951000  ekin = 1.38650860406103 |  erot = 1.31991933167798 | epot = -10.8402116121676 | etot = -8.13378367642855
952000  ekin = 1.42144708663251 |  erot = 1.29081153542894 | epot = -10.8460422986906 | etot = -8.13378367662914
953000  ekin = 1.44882630086902 |  erot = 1.26905801236401 | epot = -10.8516679899811 | etot = -8.13378367674805
954000  ekin = 1.46839021272158 |  erot = 1.25288009262562 | epot = -10.8550539819188 | etot = -8.1337836765716
955000  ekin = 1.4838917766305 |  erot = 1.24071489227322 | epot = -10.8583903451794 | etot = -8.13378367627569
956000  ekin = 1.50041047726581 |  erot = 1.23152279698862 | epot = -10.8657169503315 | etot = -8.1337836760771
957000  ekin = 1.52124212776079 |  erot = 1.22481047970146 | epot = -10.8798362835567 | etot = -8.13378367609443
958000  ekin = 1.54632228442137 |  erot = 1.22051885879374 | epot = -10.9006248194727 | etot = -8.13378367625756
959000  ekin = 1.57324295308322 |  erot = 1.21891910130133 | epot = -10.9259457307544 | etot = -8.13378367636987
960000  ekin = 1.59969206950811 |  erot = 1.22060655720991 | epot = -10.9540823031047 | etot = -8.13378367638671
961000  ekin = 1.62253441649855 |  erot = 1.22677323095054 | epot = -10.983091323711 | etot = -8.13378367626188
962000  ekin = 1.64127229877202 |  erot = 1.23851880765496 | epot = -11.0135747825492 | etot = -8.13378367612221
963000  ekin = 1.65616191295201 |  erot = 1.2567896874519 | epot = -11.0467352765479 | etot = -8.13378367614403
964000  ekin = 1.6656651479705 |  erot = 1.28218253625063 | epot = -11.0816313604669 | etot = -8.13378367624579
965000  ekin = 1.66770285488038 |  erot = 1.3145546439616 | epot = -11.1160411754141 | etot = -8.13378367657209
966000  ekin = 1.65810695016545 |  erot = 1.35314679716266 | epot = -11.1450374241363 | etot = -8.13378367680821
967000  ekin = 1.63401913752049 |  erot = 1.39653020223037 | epot = -11.1643330166823 | etot = -8.1337836769314
968000  ekin = 1.59493850387127 |  erot = 1.44254096579824 | epot = -11.1712631467335 | etot = -8.13378367706403
969000  ekin = 1.54116623872622 |  erot = 1.48830566519648 | epot = -11.1632555812598 | etot = -8.1337836773371
970000  ekin = 1.47195250959803 |  erot = 1.53048571009689 | epot = -11.1362218974025 | etot = -8.13378367770757
971000  ekin = 1.38571362917164 |  erot = 1.5659319913456 | epot = -11.0854292981254 | etot = -8.13378367760814
972000  ekin = 1.2844612448017 |  erot = 1.59277024239936 | epot = -11.01101516465 | etot = -8.13378367744898
973000  ekin = 1.17320809176569 |  erot = 1.61049478628636 | epot = -10.9174865547373 | etot = -8.13378367668527
974000  ekin = 1.06313422014123 |  erot = 1.62023440753196 | epot = -10.8171523030936 | etot = -8.13378367542037
975000  ekin = 0.970987630837182 |  erot = 1.6244505802911 | epot = -10.7292218852234 | etot = -8.13378367409516
976000  ekin = 0.913517835554474 |  erot = 1.62592320928149 | epot = -10.6732247181288 | etot = -8.13378367329284
977000  ekin = 0.900210298459302 |  erot = 1.62660680637069 | epot = -10.6606007782029 | etot = -8.13378367337287
978000  ekin = 0.928774959369741 |  erot = 1.62702792769987 | epot = -10.6895865613171 | etot = -8.13378367424749
979000  ekin = 0.986309689705174 |  erot = 1.62661906030395 | epot = -10.7467124253597 | etot = -8.13378367535057
980000  ekin = 1.05604184565997 |  erot = 1.62477777534271 | epot = -10.8146032971267 | etot = -8.13378367612403
981000  ekin = 1.12469745186161 |  erot = 1.6219349973722 | epot = -10.8804161255176 | etot = -8.13378367628376
982000  ekin = 1.18655422468626 |  erot = 1.61989865313117 | epot = -10.9402365537171 | etot = -8.13378367589964
983000  ekin = 1.24323393292639 |  erot = 1.62138932727073 | epot = -10.9984069354442 | etot = -8.13378367524711
984000  ekin = 1.3007289230927 |  erot = 1.62917854581548 | epot = -11.0636911435324 | etot = -8.13378367462418
985000  ekin = 1.36575798900667 |  erot = 1.64530549557246 | epot = -11.1448471588385 | etot = -8.13378367425938
986000  ekin = 1.44269014513785 |  erot = 1.67060135298398 | epot = -11.2470751724211 | etot = -8.13378367429928
987000  ekin = 1.5313901775753 |  erot = 1.70450616331199 | epot = -11.3696800157005 | etot = -8.13378367481321
988000  ekin = 1.62542517063045 |  erot = 1.74490462885383 | epot = -11.5041134753369 | etot = -8.1337836758526
989000  ekin = 1.70973314442488 |  erot = 1.78758053927101 | epot = -11.6310973608766 | etot = -8.13378367718067
990000  ekin = 1.76834990684032 |  erot = 1.82854801049392 | epot = -11.7306815957153 | etot = -8.13378367838107
991000  ekin = 1.78717585183509 |  erot = 1.86445265750846 | epot = -11.7854121884154 | etot = -8.13378367907184
992000  ekin = 1.75808068910206 |  erot = 1.89344947352385 | epot = -11.7853138416569 | etot = -8.13378367903104
993000  ekin = 1.68149922509594 |  erot = 1.9158777911632 | epot = -11.7311606945345 | etot = -8.13378367827537
994000  ekin = 1.5663400533633 |  erot = 1.93428820716062 | epot = -11.6344119375054 | etot = -8.13378367698145
995000  ekin = 1.42807354837585 |  erot = 1.95281321358871 | epot = -11.5146704373763 | etot = -8.13378367541172
996000  ekin = 1.28578074143061 |  erot = 1.97614374550415 | epot = -11.3957081608169 | etot = -8.13378367388211
997000  ekin = 1.15849050359392 |  erot = 2.0084932108834 | epot = -11.3007673871517 | etot = -8.13378367267434
998000  ekin = 1.06172554634779 |  erot = 2.05288173898192 | epot = -11.2483909572755 | etot = -8.13378367194584
999000  ekin = 1.00534863735291 |  erot = 2.11083351324535 | epot = -11.2499658223325 | etot = -8.13378367173427
1000000  ekin = 0.992888351992437 |  erot = 2.18232107038202 | epot = -11.3089930943954 | etot = -8.13378367202091
   1000000   0.073547285   -1.1520387      0.021139403   -1.0316105     -4.7686302e-05  64000        
Loop time of 12.0337 on 1 procs for 1000000 steps with 10 atoms

Performance: 71798.509 tau/day, 83100.127 timesteps/s, 831.001 katom-step/s
99.6% CPU use with 1 MPI tasks x no OpenMP threads

MPI task timing breakdown:
Section |  min time  |  avg time  |  max time  |%varavg| %total
---------------------------------------------------------------
Pair    | 9.7003     | 9.7003     | 9.7003     |   0.0 | 80.61
Bond    | 0.57435    | 0.57435    | 0.57435    |   0.0 |  4.77
Neigh   | 0.005182   | 0.005182   | 0.005182   |   0.0 |  0.04
Comm    | 0.29419    | 0.29419    | 0.29419    |   0.0 |  2.44
Output  | 0.089398   | 0.089398   | 0.089398   |   0.0 |  0.74
Modify  | 1.0616     | 1.0616     | 1.0616     |   0.0 |  8.82
Other   |            | 0.3086     |            |       |  2.56

Nlocal:             10 ave          10 max          10 min
Histogram: 1 0 0 0 0 0 0 0 0 0
Nghost:              0 ave           0 max           0 min
Histogram: 1 0 0 0 0 0 0 0 0 0
Neighs:             37 ave          37 max          37 min
Histogram: 1 0 0 0 0 0 0 0 0 0

Total # of neighbors = 37
Ave neighs/atom = 3.7
Ave special neighs/atom = 3.6
Neighbor list builds = 1000
Dangerous builds = 0

write_data last_config.${number}.* nocoeff
write_data last_config.3.* nocoeff
System init for write_data ...
Generated 0 of 6 mixed pair_coeff terms from geometric mixing rule
#write_restart last_config.${number}.*
Total wall time: 0:00:12
