LAMMPS (17 Apr 2024)
  using 1 OpenMP thread(s) per MPI task
WARNING: Atom style hybrid defines both, per-type and per-atom masses; both must be set, but only per-atom masses will be used (src/atom_vec_hybrid.cpp:132)
Reading data file ...
  orthogonal box = (-170 -170 -170) to (170 170 170)
  1 by 2 by 2 MPI processor grid
  reading atoms ...
  16 atoms
  reading velocities ...
  16 velocities
  scanning bonds ...
  1 = max bonds/atom
  16 ellipsoids
  orthogonal box = (-170 -170 -170) to (170 170 170)
  1 by 2 by 2 MPI processor grid
  reading bonds ...
  13 bonds
Finding 1-2 1-3 1-4 neighbors ...
  special bond factors lj:    0        0        0       
  special bond factors coul:  0        0        0       
     2 = max # of 1-2 neighbors
     2 = max # of 1-3 neighbors
     4 = max # of 1-4 neighbors
     6 = max # of special neighbors
  special bonds CPU = 0.001 seconds
  read_data CPU = 0.008 seconds
Setting atom values ...
  16 settings made for mass
16 atoms in group all
Reading oxdna potential (fene) file oxrna2.real with DATE: 2024-04-26
Finding 1-2 1-3 1-4 neighbors ...
  special bond factors lj:    0        1        1       
  special bond factors coul:  0        0        0       
     2 = max # of 1-2 neighbors
     2 = max # of 1-3 neighbors
     4 = max # of 1-4 neighbors
     6 = max # of special neighbors
  special bonds CPU = 0.000 seconds
Reading oxdna potential (excv) file oxrna2.real with DATE: 2024-04-26
Reading oxdna potential (stk) file oxrna2.real with DATE: 2024-04-26
Reading oxdna potential (hbond) file oxrna2.real with DATE: 2024-04-26
Reading oxdna potential (hbond) file oxrna2.real with DATE: 2024-04-26
Reading oxdna potential (hbond) file oxrna2.real with DATE: 2024-04-26
Reading oxdna potential (hbond) file oxrna2.real with DATE: 2024-04-26
Reading oxdna potential (xstk) file oxrna2.real with DATE: 2024-04-26
Reading oxdna potential (coaxstk) file oxrna2.real with DATE: 2024-04-26
Reading oxdna potential (dh) file oxrna2.real with DATE: 2024-04-26
Generated 0 of 6 mixed pair_coeff terms from geometric mixing rule
Neighbor list info ...
  update: every = 1 steps, delay = 0 steps, check = yes
  max neighbors/atom: 2000, page size: 100000
  master list distance cutoff = 36.640032
  ghost atom cutoff = 36.640032
  binsize = 18.320016, bins = 19 19 19
  5 neighbor lists, perpetual/occasional/extra = 5 0 0
  (1) pair oxrna2/excv, perpetual
      attributes: half, newton on
      pair build: half/bin/newton
      stencil: half/bin/3d
      bin: standard
  (2) pair oxrna2/hbond, perpetual, copy from (1)
      attributes: half, newton on
      pair build: copy
      stencil: none
      bin: none
  (3) pair oxrna2/xstk, perpetual, copy from (1)
      attributes: half, newton on
      pair build: copy
      stencil: none
      bin: none
  (4) pair oxrna2/coaxstk, perpetual, copy from (1)
      attributes: half, newton on
      pair build: copy
      stencil: none
      bin: none
  (5) pair oxrna2/dh, perpetual, copy from (1)
      attributes: half, newton on
      pair build: copy
      stencil: none
      bin: none
Setting up Verlet run ...
  Unit style    : real
  Current step  : 0
  Time step     : 0.01706
WARNING: Communication cutoff adjusted to 36.640032409886274 (src/comm.cpp:739)
0  ekin = 16.1203242878408 |  erot = 16.6982509426318 | epot = -66.3830249260541 | etot = -33.5644496955815
Per MPI rank memory allocation (min/avg/max) = 7.577 | 7.606 | 7.69 Mbytes
   Step          Temp          E_pair         E_mol          TotEng         Press          Volume    
         0   360.53565     -69.627742      3.2447172     -50.262701      0.034084814    39304000     
1000  ekin = 16.3558183649387 |  erot = 16.6323090455317 | epot = -66.5525771041998 | etot = -33.5644496937295
2000  ekin = 16.6191649168147 |  erot = 16.5684372137643 | epot = -66.7520518221219 | etot = -33.5644496915429
3000  ekin = 16.9230904408654 |  erot = 16.5204480451832 | epot = -67.0079881759691 | etot = -33.5644496899204
4000  ekin = 17.2772162612591 |  erot = 16.49867929322 | epot = -67.3403452437715 | etot = -33.5644496892924
5000  ekin = 17.6866959075726 |  erot = 16.5050138456572 | epot = -67.7561594428204 | etot = -33.5644496895906
6000  ekin = 18.1531343302964 |  erot = 16.5325161302815 | epot = -68.2501001506509 | etot = -33.564449690073
7000  ekin = 18.680653493314 |  erot = 16.5738535187235 | epot = -68.8189567014344 | etot = -33.5644496893969
8000  ekin = 19.2766528199695 |  erot = 16.6261515879628 | epot = -69.4672540969553 | etot = -33.564449689023
9000  ekin = 19.9461490397319 |  erot = 16.6908475985738 | epot = -70.201446326231 | etot = -33.5644496879253
10000  ekin = 20.6973181248474 |  erot = 16.7772960438528 | epot = -71.039063854854 | etot = -33.5644496861538
   10000   349.20396     -76.691733      3.375421      -57.702651     -0.00024160018  39304000     
Loop time of 15.1991 on 4 procs for 1000000 steps with 16 atoms

Performance: 96.978 ns/day, 0.247 hours/ns, 65793.330 timesteps/s, 1.053 Matom-step/s
99.8% CPU use with 4 MPI tasks x 1 OpenMP threads

MPI task timing breakdown:
Section |  min time  |  avg time  |  max time  |%varavg| %total
---------------------------------------------------------------
Pair    | 5          | 7.3219     | 8.7863     |  57.6 | 48.17
Bond    | 0.16729    | 0.27802    | 0.36232    |  13.4 |  1.83
Neigh   | 0.004996   | 0.0050565  | 0.005082   |   0.0 |  0.03
Comm    | 4.2246     | 5.7942     | 8.2783     |  66.3 | 38.12
Output  | 0.065594   | 0.07006    | 0.079338   |   2.1 |  0.46
Modify  | 0.59597    | 0.6588     | 0.74343    |   7.9 |  4.33
Other   |            | 1.071      |            |       |  7.05

Nlocal:              4 ave           4 max           4 min
Histogram: 4 0 0 0 0 0 0 0 0 0
Nghost:             12 ave          12 max          12 min
Histogram: 4 0 0 0 0 0 0 0 0 0
Neighs:          26.75 ave          47 max           9 min
Histogram: 1 1 0 0 0 0 0 1 0 1

Total # of neighbors = 107
Ave neighs/atom = 6.6875
Ave special neighs/atom = 3.75
Neighbor list builds = 1000
Dangerous builds = 0
System init for write_data ...
Generated 0 of 6 mixed pair_coeff terms from geometric mixing rule
Total wall time: 0:00:15
