LAMMPS (17 Apr 2024)
  using 1 OpenMP thread(s) per MPI task
WARNING: Atom style hybrid defines both, per-type and per-atom masses; both must be set, but only per-atom masses will be used (src/atom_vec_hybrid.cpp:132)
Reading data file ...
  orthogonal box = (-170 -170 -170) to (170 170 170)
  1 by 1 by 1 MPI processor grid
  reading atoms ...
  16 atoms
  reading velocities ...
  16 velocities
  scanning bonds ...
  1 = max bonds/atom
  16 ellipsoids
  orthogonal box = (-170 -170 -170) to (170 170 170)
  1 by 1 by 1 MPI processor grid
  reading bonds ...
  13 bonds
Finding 1-2 1-3 1-4 neighbors ...
  special bond factors lj:    0        0        0       
  special bond factors coul:  0        0        0       
     2 = max # of 1-2 neighbors
     2 = max # of 1-3 neighbors
     4 = max # of 1-4 neighbors
     6 = max # of special neighbors
  special bonds CPU = 0.000 seconds
  read_data CPU = 0.006 seconds
Setting atom values ...
  16 settings made for mass
16 atoms in group all
Reading oxdna potential (fene) file oxrna2.real with DATE: 2024-04-26
Finding 1-2 1-3 1-4 neighbors ...
  special bond factors lj:    0        1        1       
  special bond factors coul:  0        0        0       
     2 = max # of 1-2 neighbors
     2 = max # of 1-3 neighbors
     4 = max # of 1-4 neighbors
     6 = max # of special neighbors
  special bonds CPU = 0.000 seconds
Reading oxdna potential (excv) file oxrna2.real with DATE: 2024-04-26
Reading oxdna potential (stk) file oxrna2.real with DATE: 2024-04-26
Reading oxdna potential (hbond) file oxrna2.real with DATE: 2024-04-26
Reading oxdna potential (hbond) file oxrna2.real with DATE: 2024-04-26
Reading oxdna potential (hbond) file oxrna2.real with DATE: 2024-04-26
Reading oxdna potential (hbond) file oxrna2.real with DATE: 2024-04-26
Reading oxdna potential (xstk) file oxrna2.real with DATE: 2024-04-26
Reading oxdna potential (coaxstk) file oxrna2.real with DATE: 2024-04-26
Reading oxdna potential (dh) file oxrna2.real with DATE: 2024-04-26
Generated 0 of 6 mixed pair_coeff terms from geometric mixing rule
Neighbor list info ...
  update: every = 1 steps, delay = 0 steps, check = yes
  max neighbors/atom: 2000, page size: 100000
  master list distance cutoff = 36.640032
  ghost atom cutoff = 36.640032
  binsize = 18.320016, bins = 19 19 19
  5 neighbor lists, perpetual/occasional/extra = 5 0 0
  (1) pair oxrna2/excv, perpetual
      attributes: half, newton on
      pair build: half/bin/newton
      stencil: half/bin/3d
      bin: standard
  (2) pair oxrna2/hbond, perpetual, copy from (1)
      attributes: half, newton on
      pair build: copy
      stencil: none
      bin: none
  (3) pair oxrna2/xstk, perpetual, copy from (1)
      attributes: half, newton on
      pair build: copy
      stencil: none
      bin: none
  (4) pair oxrna2/coaxstk, perpetual, copy from (1)
      attributes: half, newton on
      pair build: copy
      stencil: none
      bin: none
  (5) pair oxrna2/dh, perpetual, copy from (1)
      attributes: half, newton on
      pair build: copy
      stencil: none
      bin: none
Setting up Verlet run ...
  Unit style    : real
  Current step  : 0
  Time step     : 0.01706
WARNING: Communication cutoff adjusted to 36.640032409886274 (src/comm.cpp:739)
0  ekin = 16.1203242878408 |  erot = 16.6982509426318 | epot = -66.3830249260541 | etot = -33.5644496955815
Per MPI rank memory allocation (min/avg/max) = 7.592 | 7.592 | 7.592 Mbytes
   Step          Temp          E_pair         E_mol          TotEng         Press          Volume    
         0   360.53565     -69.627742      3.2447172     -50.262701      0.034084814    39304000     
1000  ekin = 16.3558183649387 |  erot = 16.6323090455317 | epot = -66.5525771041996 | etot = -33.5644496937292
2000  ekin = 16.6191649168148 |  erot = 16.5684372137643 | epot = -66.7520518221218 | etot = -33.5644496915427
3000  ekin = 16.9230904408655 |  erot = 16.5204480451833 | epot = -67.0079881759689 | etot = -33.5644496899201
4000  ekin = 17.2772162612592 |  erot = 16.4986792932201 | epot = -67.3403452437718 | etot = -33.5644496892925
5000  ekin = 17.6866959075726 |  erot = 16.5050138456573 | epot = -67.7561594428213 | etot = -33.5644496895913
6000  ekin = 18.1531343302965 |  erot = 16.5325161302816 | epot = -68.2501001506517 | etot = -33.5644496900737
7000  ekin = 18.6806534933141 |  erot = 16.5738535187237 | epot = -68.818956701435 | etot = -33.5644496893973
8000  ekin = 19.2766528199697 |  erot = 16.626151587963 | epot = -69.4672540969566 | etot = -33.5644496890239
9000  ekin = 19.946149039732 |  erot = 16.690847598574 | epot = -70.2014463262322 | etot = -33.5644496879261
10000  ekin = 20.6973181248475 |  erot = 16.777296043853 | epot = -71.039063854855 | etot = -33.5644496861545
   10000   349.20396     -76.691733      3.375421      -57.702651     -0.00024160068  39304000     
Loop time of 17.9925 on 1 procs for 1000000 steps with 16 atoms

Performance: 81.922 ns/day, 0.293 hours/ns, 55578.741 timesteps/s, 889.260 katom-step/s
99.8% CPU use with 1 MPI tasks x 1 OpenMP threads

MPI task timing breakdown:
Section |  min time  |  avg time  |  max time  |%varavg| %total
---------------------------------------------------------------
Pair    | 14.919     | 14.919     | 14.919     |   0.0 | 82.92
Bond    | 0.66748    | 0.66748    | 0.66748    |   0.0 |  3.71
Neigh   | 0.007146   | 0.007146   | 0.007146   |   0.0 |  0.04
Comm    | 0.24907    | 0.24907    | 0.24907    |   0.0 |  1.38
Output  | 0.173      | 0.173      | 0.173      |   0.0 |  0.96
Modify  | 1.6962     | 1.6962     | 1.6962     |   0.0 |  9.43
Other   |            | 0.2809     |            |       |  1.56

Nlocal:             16 ave          16 max          16 min
Histogram: 1 0 0 0 0 0 0 0 0 0
Nghost:              0 ave           0 max           0 min
Histogram: 1 0 0 0 0 0 0 0 0 0
Neighs:            107 ave         107 max         107 min
Histogram: 1 0 0 0 0 0 0 0 0 0

Total # of neighbors = 107
Ave neighs/atom = 6.6875
Ave special neighs/atom = 3.75
Neighbor list builds = 1000
Dangerous builds = 0
System init for write_data ...
Generated 0 of 6 mixed pair_coeff terms from geometric mixing rule
Total wall time: 0:00:18
