LAMMPS (11 Feb 2026 - Development - patch_10Dec2025-1372-ged4f75871d-modified)
# LAMMPS input file in real units via oxdna lj2real.py, date 2024-05-19
variable number equal 2
variable ofreq  equal 1000
variable efreq  equal 1000
variable T      equal 300.0
variable rhos   equal 0.5

units real

dimension 3

newton on

boundary  p p p

atom_style hybrid bond ellipsoid oxdna
WARNING: Atom style hybrid defines both, per-type and per-atom masses; both must be set, but only per-atom masses will be used (../atom_vec_hybrid.cpp:132)
atom_modify sort 0 8.518

# Pair interactions require lists of neighbours to be calculated
neighbor 17.036 bin
neigh_modify every 1 delay 0 check yes

read_data data.duplex2
Reading data file ...
  orthogonal box = (-170 -170 -170) to (170 170 170)
  1 by 2 by 2 MPI processor grid
  reading atoms ...
  16 atoms
  reading velocities ...
  16 velocities
  scanning bonds ...
  1 = max bonds/atom
  16 ellipsoids
  orthogonal box = (-170 -170 -170) to (170 170 170)
  1 by 2 by 2 MPI processor grid
  reading bonds ...
  13 bonds
Finding 1-2 1-3 1-4 neighbors ...
  special bond factors lj:    0        0        0       
  special bond factors coul:  0        0        0       
     2 = max # of 1-2 neighbors
     2 = max # of 1-3 neighbors
     4 = max # of 1-4 neighbors
     6 = max # of special neighbors
  special bonds CPU = 0.000 seconds
  read_data CPU = 0.001 seconds

set atom * mass 315.75
Setting atom values ...
  16 settings made for mass

group all type 1 4
16 atoms in group all

# oxRNA2 bond interactions - FENE backbone
bond_style oxrna2/fene
bond_coeff * oxrna2_real.cgdna
Reading oxdna potential (fene) file oxrna2_real.cgdna with DATE: 2024-03-04
special_bonds lj 0 1 1
Finding 1-2 1-3 1-4 neighbors ...
  special bond factors lj:    0        1        1       
  special bond factors coul:  0        0        0       
     2 = max # of 1-2 neighbors
     2 = max # of 1-3 neighbors
     4 = max # of 1-4 neighbors
     6 = max # of special neighbors
  special bonds CPU = 0.000 seconds

# oxRNA2 pair interactions
pair_style hybrid/overlay oxrna2/excv oxrna2/stk oxrna2/hbond oxrna2/xstk oxrna2/coaxstk oxrna2/dh
pair_coeff * * oxrna2/excv    oxrna2_real.cgdna
Reading oxdna potential (excv) file oxrna2_real.cgdna with DATE: 2024-03-04
pair_coeff * * oxrna2/stk     seqdep 300.0 oxrna2_real.cgdna
Reading oxdna potential (stk) file oxrna2_real.cgdna with DATE: 2024-03-04
pair_coeff * * oxrna2/hbond   seqdep oxrna2_real.cgdna
Reading oxdna potential (hbond) file oxrna2_real.cgdna with DATE: 2024-03-04
pair_coeff 1 4 oxrna2/hbond   seqdep oxrna2_real.cgdna
Reading oxdna potential (hbond) file oxrna2_real.cgdna with DATE: 2024-03-04
pair_coeff 2 3 oxrna2/hbond   seqdep oxrna2_real.cgdna
Reading oxdna potential (hbond) file oxrna2_real.cgdna with DATE: 2024-03-04
pair_coeff 3 4 oxrna2/hbond   seqdep oxrna2_real.cgdna
Reading oxdna potential (hbond) file oxrna2_real.cgdna with DATE: 2024-03-04
pair_coeff * * oxrna2/xstk    oxrna2_real.cgdna
Reading oxdna potential (xstk) file oxrna2_real.cgdna with DATE: 2024-03-04
pair_coeff * * oxrna2/coaxstk oxrna2_real.cgdna
Reading oxdna potential (coaxstk) file oxrna2_real.cgdna with DATE: 2024-03-04
pair_coeff * * oxrna2/dh      300.0 0.5 oxrna2_real.cgdna
Reading oxdna potential (dh) file oxrna2_real.cgdna with DATE: 2024-03-04

# NVE ensemble
fix 1 all nve/asphere
#fix 2 all langevin ${T} ${T} 4265.0 457145 angmom 10

timestep 0.017055

#comm_style tiled
fix 3 all balance 1000 1.03 shift xyz 10 1.03
comm_modify cutoff 32.4

compute quat all property/atom quatw quati quatj quatk

compute erot all erotate/asphere
compute ekin all ke
compute epot all pe
variable erot equal c_erot
variable ekin equal c_ekin
variable epot equal c_epot
variable etot equal c_erot+c_ekin+c_epot
fix 5 all print ${efreq} "$(step)  ekin = ${ekin} |  erot = ${erot} | epot = ${epot} | etot = ${etot}" screen yes
fix 5 all print 1000 "$(step)  ekin = ${ekin} |  erot = ${erot} | epot = ${epot} | etot = ${etot}" screen yes

dump out all custom ${ofreq} out.${number}.lammpstrj id mol type x y z ix iy iz vx vy vz c_quat[1] c_quat[2] c_quat[3] c_quat[4] angmomx angmomy angmomz
dump out all custom 1000 out.${number}.lammpstrj id mol type x y z ix iy iz vx vy vz c_quat[1] c_quat[2] c_quat[3] c_quat[4] angmomx angmomy angmomz
dump out all custom 1000 out.2.lammpstrj id mol type x y z ix iy iz vx vy vz c_quat[1] c_quat[2] c_quat[3] c_quat[4] angmomx angmomy angmomz
dump_modify out sort id
dump_modify out format line "%d %d %d  %22.15le %22.15le %22.15le  %d %d %d  %22.15le %22.15le %22.15le  %22.15le %22.15le %22.15le %22.15le  %22.15le %22.15le %22.15le"

run 10000
Generated 0 of 6 mixed pair_coeff terms from geometric mixing rule
Neighbor list info ...
  update: every = 1 steps, delay = 0 steps, check = yes
  max neighbors/atom: 2000, page size: 100000
  master list distance cutoff = 36.640032
  ghost atom cutoff = 36.640032
  binsize = 18.320016, bins = 19 19 19
  5 neighbor lists, perpetual/occasional/extra = 5 0 0
  (1) pair oxrna2/excv, perpetual
      attributes: half, newton on
      pair build: half/bin/newton
      stencil: half/bin/3d
      bin: standard
  (2) pair oxrna2/hbond, perpetual, copy from (1)
      attributes: half, newton on
      pair build: copy
      stencil: none
      bin: none
  (3) pair oxrna2/xstk, perpetual, copy from (1)
      attributes: half, newton on
      pair build: copy
      stencil: none
      bin: none
  (4) pair oxrna2/coaxstk, perpetual, copy from (1)
      attributes: half, newton on
      pair build: copy
      stencil: none
      bin: none
  (5) pair oxrna2/dh, perpetual, copy from (1)
      attributes: half, newton on
      pair build: copy
      stencil: none
      bin: none
WARNING: Communication cutoff adjusted to 36.640032409886274 (../comm.cpp:703)
0  ekin = 16.124695569505 |  erot = 16.7027740772248 | epot = -66.3822510796368 | etot = -33.554781432907
Per MPI rank memory allocation (min/avg/max) = 8.827 | 8.856 | 8.94 Mbytes
   Step          Temp          E_pair         E_mol          TotEng         Press          Volume    
         0   360.63341     -69.626927      3.2446757     -50.257556      0.034089706    39304000     
1000  ekin = 16.3601654634658 |  erot = 16.6368032824082 | epot = -66.5517501769293 | etot = -33.5547814310553
2000  ekin = 16.6234512529079 |  erot = 16.5728409627307 | epot = -66.7510736445075 | etot = -33.5547814288689
3000  ekin = 16.9272783165429 |  erot = 16.5247054198227 | epot = -67.0067651636121 | etot = -33.5547814272464
4000  ekin = 16.888170296753 |  erot = 16.3227381909874 | epot = -66.7656901081761 | etot = -33.5547816204357
5000  ekin = 16.425349104629 |  erot = 16.799520973286 | epot = -66.7796515030531 | etot = -33.5547814251381
6000  ekin = 17.0933141835601 |  erot = 17.472715108688 | epot = -68.1208111154088 | etot = -33.5547818231607
7000  ekin = 17.626139083968 |  erot = 17.5060536820026 | epot = -68.6869745882803 | etot = -33.5547818223097
8000  ekin = 18.2497664431962 |  erot = 17.6215876699426 | epot = -69.4261359353333 | etot = -33.5547818221945
9000  ekin = 18.9644818889217 |  erot = 17.8234400977194 | epot = -70.3427038091653 | etot = -33.5547818225242
10000  ekin = 19.7701361905065 |  erot = 18.1103549699291 | epot = -71.4352729833515 | etot = -33.5547818229159
     10000   442.16473     -74.316533      2.8812602     -51.665137      0.031503497    39304000     
Loop time of 0.0748858 on 4 procs for 10000 steps with 16 atoms

Performance: 196.773 ns/day, 0.122 hours/ns, 133536.754 timesteps/s, 2.137 Matom-step/s
99.8% CPU use with 4 MPI tasks x no OpenMP threads

MPI task timing breakdown:
Section |  min time  |  avg time  |  max time  |%varavg| %total
---------------------------------------------------------------
Pair    | 0.017483   | 0.028836   | 0.037148   |   4.2 | 38.51
Bond    | 0.000599   | 0.0015395  | 0.00232    |   1.6 |  2.06
Neigh   | 2.6e-05    | 2.625e-05  | 2.7e-05    |   0.0 |  0.04
Comm    | 0.018695   | 0.026106   | 0.038548   |   4.6 | 34.86
Output  | 0.0003     | 0.0003115  | 0.000334   |   0.0 |  0.42
Modify  | 0.012838   | 0.013533   | 0.013957   |   0.4 | 18.07
Other   |            | 0.004533   |            |       |  6.05

Nlocal:              4 ave           5 max           3 min
Histogram: 2 0 0 0 0 0 0 0 0 2
Nghost:             12 ave          13 max          11 min
Histogram: 2 0 0 0 0 0 0 0 0 2
Neighs:             30 ave          54 max          13 min
Histogram: 1 1 0 0 0 1 0 0 0 1

Total # of neighbors = 120
Ave neighs/atom = 7.5
Ave special neighs/atom = 3.75
Neighbor list builds = 10
Dangerous builds = 0

write_data last_config.${number}.* nocoeff
write_data last_config.2.* nocoeff
System init for write_data ...
Generated 0 of 6 mixed pair_coeff terms from geometric mixing rule
#write_restart last_config.${number}.*
Total wall time: 0:00:00
